/*--------------------------------*- C++ -*----------------------------------*\
  =========                 |
  \\      /  F ield         | OpenFOAM: The Open Source CFD Toolbox
   \\    /   O peration     | Website:  https://openfoam.org
    \\  /    A nd           | Version:  9
     \\/     M anipulation  |
\*---------------------------------------------------------------------------*/
FoamFile
{
    format      ascii;
    class       volVectorField;
    location    "0.015";
    object      U;
}
// * * * * * * * * * * * * * * * * * * * * * * * * * * * * * * * * * * * * * //

dimensions      [0 1 -1 0 0 0 0];

internalField   nonuniform List<vector> 
40
(
(-0.139735 -0.0915122 0)
(-0.114081 -0.115572 0)
(-0.164764 -0.115385 0)
(-0.138526 -0.148425 0)
(-0.102716 -0.16898 0)
(-0.0633377 -0.174055 0)
(-0.0279899 -0.157623 0)
(-0.00604854 -0.082639 0)
(-0.185832 -0.135451 0)
(-0.164535 -0.180138 0)
(-0.12789 -0.209723 0)
(-0.0823647 -0.21602 0)
(-0.0378656 -0.193044 0)
(-0.00881614 -0.0997079 0)
(-0.204694 -0.149194 0)
(-0.18683 -0.208277 0)
(-0.152053 -0.251138 0)
(-0.103392 -0.264524 0)
(-0.05057 -0.23866 0)
(-0.0128231 -0.123844 0)
(-0.22838 -0.161842 0)
(-0.211439 -0.236865 0)
(-0.175905 -0.294007 0)
(-0.123684 -0.318455 0)
(-0.0630401 -0.293882 0)
(-0.0168333 -0.156287 0)
(-0.259942 -0.182129 0)
(-0.236247 -0.263469 0)
(-0.198973 -0.339973 0)
(-0.14113 -0.377161 0)
(-0.07261 -0.356658 0)
(-0.0191003 -0.193554 0)
(-0.290713 -0.202358 0)
(-0.265505 -0.299527 0)
(-0.221713 -0.384698 0)
(-0.158422 -0.440105 0)
(-0.0810186 -0.425273 0)
(-0.020451 -0.235079 0)
(-0.325197 -0.230416 0)
(-0.301099 -0.328512 0)
)
;

boundaryField
{
    movingWall
    {
        type            fixedValue;
        value           nonuniform List<vector> 0();
    }
    fixedWalls
    {
        type            noSlip;
    }
    frontAndBack
    {
        type            empty;
    }
    procBoundary8to5
    {
        type            processor;
        value           nonuniform List<vector> 4((-0.159881 -0.0686604 0) (-0.18097 -0.0836248 0) (-0.197449 -0.0929693 0) (-0.210706 -0.0956669 0));
    }
    procBoundary8to6
    {
        type            processor;
        value           nonuniform List<vector> 4((-0.238829 -0.102431 0) (-0.27943 -0.11896 0) (-0.315815 -0.139909 0) (-0.345645 -0.160674 0));
    }
    procBoundary8to7
    {
        type            processor;
        value           nonuniform List<vector> 7((-0.121931 -0.0681331 0) (-0.100227 -0.0890427 0) (-0.082737 -0.133345 0) (-0.082737 -0.133345 0) (-0.0523447 -0.14133 0) (-0.0229627 -0.129801 0) (-0.00535089 -0.0698239 0));
    }
    procBoundary8to9
    {
        type            processor;
        value           nonuniform List<vector> 7((-0.259764 -0.439495 0) (-0.192135 -0.516702 0) (-0.10009 -0.507106 0) (-0.0252136 -0.283876 0) (-0.35005 -0.246021 0) (-0.259764 -0.439495 0) (-0.341165 -0.363327 0));
    }
}


// ************************************************************************* //
