/*--------------------------------*- C++ -*----------------------------------*\
| =========                 |                                                 |
| \\      /  F ield         | OpenFOAM: The Open Source CFD Toolbox           |
|  \\    /   O peration     | Version:  2212                                  |
|   \\  /    A nd           | Website:  www.openfoam.com                      |
|    \\/     M anipulation  |                                                 |
\*---------------------------------------------------------------------------*/
FoamFile
{
    version     2.0;
    format      ascii;
    arch        "LSB;label=32;scalar=64";
    class       volVectorField;
    location    "0.4";
    object      U;
}
// * * * * * * * * * * * * * * * * * * * * * * * * * * * * * * * * * * * * * //

dimensions      [0 1 -1 0 0 0 0];

internalField   nonuniform List<vector> 
44
(
(0.00612051 0 0)
(0.00523462 0 0)
(0.00421692 0 0)
(0.00309195 0 0)
(0.00188767 0 0)
(0.000634692 0 0)
(0.018515 0 0)
(0.0158365 0 0)
(0.0127587 0 0)
(0.00935566 0 0)
(0.00571206 0 0)
(0.00192062 0 0)
(0.031374 0 0)
(0.0268402 0 0)
(0.0216276 0 0)
(0.0158615 0 0)
(0.00968522 0 0)
(0.00325676 0 0)
(0.0450216 0 0)
(0.038527 0 0)
(0.0310535 0 0)
(0.0227798 0 0)
(0.0139121 0 0)
(0.00467856 0 0)
(0.0598028 0 0)
(0.0511983 0 0)
(0.0412841 0 0)
(0.0302955 0 0)
(0.018507 0 0)
(0.00622467 0 0)
(0.0760948 0 0)
(0.0651863 0 0)
(0.0525946 0 0)
(0.0386153 0 0)
(0.0235984 0 0)
(0.0079387 0 0)
(0.105377 0 0)
(0.0943186 0 0)
(0.0808659 0 0)
(0.0652993 0 0)
(0.0479778 0 0)
(0.0293355 0 0)
(0.00987158 0 0)
(0.0120846 0 0)
)
;

boundaryField
{
    movingWall
    {
        type            fixedValue;
        value           nonuniform List<vector> 0();
    }
    fixedWalls
    {
        type            noSlip;
    }
    frontAndBack
    {
        type            empty;
    }
    procBoundary2to1
    {
        type            processor;
        value           nonuniform List<vector> 8((0.00685412 0 0) (0.0207325 0 0) (0.0351258 0 0) (0.0503913 0 0) (0.0669077 0 0) (0.0850844 0 0) (0.0850844 0 0) (0.113838 0 0));
    }
    procBoundary2to5
    {
        type            processor;
        value           nonuniform List<vector> 8((0.128291 0 0) (0.114953 0 0) (0.0986722 0 0) (0.0797696 0 0) (0.0586685 0 0) (0.0358988 0 0) (0.0358988 0 0) (0.0146559 0 0));
    }
}


// ************************************************************************* //
