/*--------------------------------*- C++ -*----------------------------------*\
  =========                 |
  \\      /  F ield         | OpenFOAM: The Open Source CFD Toolbox
   \\    /   O peration     | Website:  https://openfoam.org
    \\  /    A nd           | Version:  9
     \\/     M anipulation  |
\*---------------------------------------------------------------------------*/
FoamFile
{
    format      ascii;
    class       volVectorField;
    location    "0.095";
    object      U;
}
// * * * * * * * * * * * * * * * * * * * * * * * * * * * * * * * * * * * * * //

dimensions      [0 1 -1 0 0 0 0];

internalField   nonuniform List<vector> 
40
(
(-0.0165647 0.168993 0)
(-0.0733693 0.382225 0)
(-0.169767 0.503561 0)
(-0.281911 0.568575 0)
(-0.397847 0.587425 0)
(-0.0182666 0.210098 0)
(-0.0800831 0.468556 0)
(-0.183734 0.611522 0)
(-0.302124 0.685617 0)
(-0.422886 0.704636 0)
(-0.0203359 0.255138 0)
(-0.0878931 0.56172 0)
(-0.197909 0.72536 0)
(-0.023253 0.305019 0)
(-0.0977213 0.661838 0)
(-0.213458 0.843738 0)
(-0.0276803 0.36174 0)
(-0.1115 0.769976 0)
(-0.232379 0.964674 0)
(-0.0350326 0.428944 0)
(-0.132197 0.88767 0)
(-0.256814 1.08398 0)
(-0.0475373 0.513476 0)
(-0.164766 1.01683 0)
(-0.287937 1.19574 0)
(-0.0685482 0.627544 0)
(-0.21217 1.15802 0)
(-0.319335 1.28658 0)
(-0.0987909 0.789564 0)
(-0.267933 1.30001 0)
(-0.316248 1.32246 0)
(-0.119577 1.03355 0)
(-0.280205 1.39293 0)
(-0.162775 1.23017 0)
(0.000925871 1.26703 0)
(-0.0103707 1.27684 0)
(0.464826 0.90072 0)
(1.41863 0.691418 0)
(1.81481 0.57029 0)
(2.48511 0.338644 0)
)
;

boundaryField
{
    movingWall
    {
        type            fixedValue;
        value           uniform (4.92332 0 0);
    }
    fixedWalls
    {
        type            noSlip;
    }
    frontAndBack
    {
        type            empty;
    }
    procBoundary1to0
    {
        type            processor;
        value           nonuniform List<vector> 5((-0.0149485 0.131587 0) (-0.0665712 0.303006 0) (-0.155294 0.403193 0) (-0.259309 0.458513 0) (-0.367873 0.475824 0));
    }
    procBoundary1to3
    {
        type            processor;
        value           nonuniform List<vector> 8((-0.510814 0.566195 0) (-0.32041 0.806831 0) (-0.539254 0.677316 0) (-0.442117 0.823943 0) (-0.32041 0.806831 0) (-0.336718 0.928517 0) (-0.351401 1.04542 0) (-0.364134 1.14997 0));
    }
    procBoundary1to4
    {
        type            processor;
        value           nonuniform List<vector> 6((-0.369483 1.22933 0) (-0.348194 1.26343 0) (-0.241952 1.21662 0) (0.0956671 1.02735 0) (0.971128 0.656065 0) (3.02274 0.218697 0));
    }
}


// ************************************************************************* //
