/*--------------------------------*- C++ -*----------------------------------*\
  =========                 |
  \\      /  F ield         | OpenFOAM: The Open Source CFD Toolbox
   \\    /   O peration     | Website:  https://openfoam.org
    \\  /    A nd           | Version:  9
     \\/     M anipulation  |
\*---------------------------------------------------------------------------*/
FoamFile
{
    format      ascii;
    class       volScalarField;
    location    "0.05";
    object      p;
}
// * * * * * * * * * * * * * * * * * * * * * * * * * * * * * * * * * * * * * //

dimensions      [0 2 -2 0 0 0 0];

internalField   nonuniform List<scalar> 
40
(
-0.00993098
0.0279526
0.0673793
0.107614
-0.0116539
0.0251558
0.0634864
0.10148
-0.0176165
0.0161285
0.051833
0.0880011
-0.0267564
0.00245456
0.0345407
0.0679278
-0.0387763
-0.0152728
0.0121923
0.0416059
-0.054173
-0.0370059
-0.0149198
0.00929366
-0.0744994
-0.063454
-0.0465534
-0.0276282
-0.102124
-0.0958229
-0.0828093
-0.0684901
-0.137734
-0.13526
-0.124863
-0.112082
-0.187621
-0.184099
-0.173968
-0.157722
)
;

boundaryField
{
    movingWall
    {
        type            zeroGradient;
    }
    fixedWalls
    {
        type            zeroGradient;
    }
    frontAndBack
    {
        type            empty;
    }
    procBoundary5to2
    {
        type            processor;
        value           nonuniform List<scalar> 8(-0.0465077 -0.0477186 -0.0510377 -0.0560792 -0.0629894 -0.073176 -0.0886602 -0.110164);
    }
    procBoundary5to3
    {
        type            processor;
        value           nonuniform List<scalar> 2(-0.141179 -0.184293);
    }
    procBoundary5to6
    {
        type            processor;
        value           nonuniform List<scalar> 4(-0.248298 -0.243633 -0.231786 -0.213448);
    }
    procBoundary5to7
    {
        type            processor;
        value           nonuniform List<scalar> 6(0.129493 0.124787 0.111377 0.0906887 0.0630519 0.0291995);
    }
    procBoundary5to8
    {
        type            processor;
        value           nonuniform List<scalar> 4(-0.00394744 -0.0476484 -0.093168 -0.140375);
    }
}


// ************************************************************************* //
