/*--------------------------------*- C++ -*----------------------------------*\
  =========                 |
  \\      /  F ield         | OpenFOAM: The Open Source CFD Toolbox
   \\    /   O peration     | Website:  https://openfoam.org
    \\  /    A nd           | Version:  9
     \\/     M anipulation  |
\*---------------------------------------------------------------------------*/
FoamFile
{
    format      ascii;
    class       surfaceScalarField;
    location    "0.095";
    object      phi;
}
// * * * * * * * * * * * * * * * * * * * * * * * * * * * * * * * * * * * * * //

dimensions      [0 3 -1 0 0 0 0];

internalField   nonuniform List<scalar> 
67
(
-2.92478e-06
7.04584e-07
-3.5788e-06
6.54027e-07
-4.13114e-06
5.52336e-07
-4.52663e-06
3.95489e-07
1.91141e-07
-7.36427e-06
2.42814e-06
-8.93116e-06
2.22092e-06
-1.02209e-05
1.84206e-06
-1.11243e-05
1.2989e-06
6.20044e-07
-1.12364e-05
4.90591e-06
-1.3474e-05
4.45852e-06
-1.53028e-05
3.67078e-06
-1.65765e-05
2.57264e-06
1.22488e-06
-1.48208e-05
8.02557e-06
-1.7624e-05
7.26171e-06
-1.99113e-05
5.95803e-06
-2.15104e-05
4.1718e-06
2.00128e-06
-1.81269e-05
1.1729e-05
-2.14463e-05
1.05811e-05
-2.41623e-05
8.67407e-06
-2.60857e-05
6.09518e-06
2.9799e-06
-2.11463e-05
1.59706e-05
-2.49509e-05
1.43858e-05
-2.80867e-05
1.18098e-05
-3.03555e-05
8.36405e-06
4.21524e-06
-2.38614e-05
2.07002e-05
-2.81136e-05
1.8638e-05
-3.1657e-05
1.53532e-05
-3.42928e-05
1.09999e-05
5.76887e-06
-2.62381e-05
-3.08759e-05
-3.47905e-05
-3.77873e-05
)
;

boundaryField
{
    movingWall
    {
        type            calculated;
        value           nonuniform List<scalar> 0();
    }
    fixedWalls
    {
        type            calculated;
        value           uniform 0;
    }
    frontAndBack
    {
        type            empty;
        value           nonuniform List<scalar> 0();
    }
    procBoundary2to0
    {
        type            processor;
        value           nonuniform List<scalar> 8(2.2202e-06 5.64072e-06 8.75866e-06 1.17011e-05 1.44235e-05 1.69046e-05 1.91318e-05 2.10942e-05);
    }
    procBoundary2to3
    {
        type            processor;
        value           nonuniform List<scalar> 5(2.58441e-05 2.32758e-05 1.92678e-05 1.39966e-05 7.67201e-06);
    }
    procBoundary2to5
    {
        type            processor;
        value           nonuniform List<scalar> 8(-4.71777e-06 -1.15532e-05 -1.71813e-05 -2.22868e-05 -2.70643e-05 -3.15909e-05 -3.58465e-05 -3.96904e-05);
    }
}


// ************************************************************************* //
