/*--------------------------------*- C++ -*----------------------------------*\
  =========                 |
  \\      /  F ield         | OpenFOAM: The Open Source CFD Toolbox
   \\    /   O peration     | Website:  https://openfoam.org
    \\  /    A nd           | Version:  9
     \\/     M anipulation  |
\*---------------------------------------------------------------------------*/
FoamFile
{
    format      ascii;
    class       volVectorField;
    location    "0.095";
    object      U;
}
// * * * * * * * * * * * * * * * * * * * * * * * * * * * * * * * * * * * * * //

dimensions      [0 1 -1 0 0 0 0];

internalField   nonuniform List<vector> 
40
(
(-0.0518289 0.00552973 0)
(-0.0656472 0.00512981 0)
(-0.0778604 0.0043714 0)
(-0.0874661 0.00317017 0)
(-0.0934326 0.00156129 0)
(-0.130839 0.0274556 0)
(-0.164424 0.0252723 0)
(-0.193454 0.0211533 0)
(-0.215747 0.0150597 0)
(-0.22929 0.00730596 0)
(-0.200976 0.0699125 0)
(-0.249148 0.0637268 0)
(-0.290549 0.0526427 0)
(-0.322129 0.0369991 0)
(-0.341199 0.0176268 0)
(-0.266505 0.126472 0)
(-0.326965 0.114694 0)
(-0.378824 0.0942472 0)
(-0.418409 0.0659702 0)
(-0.442498 0.0314513 0)
(-0.327058 0.194997 0)
(-0.398639 0.176189 0)
(-0.460122 0.144457 0)
(-0.50738 0.101225 0)
(-0.536767 0.0488475 0)
(-0.382315 0.274812 0)
(-0.464194 0.247658 0)
(-0.534837 0.203082 0)
(-0.589853 0.14309 0)
(-0.625292 0.0707673 0)
(-0.431937 0.364881 0)
(-0.523236 0.328542 0)
(-0.602439 0.269982 0)
(-0.665232 0.192077 0)
(-0.707593 0.0983357 0)
(-0.475516 0.464007 0)
(-0.57478 0.417763 0)
(-0.661549 0.344801 0)
(-0.731658 0.248431 0)
(-0.781039 0.132859 0)
)
;

boundaryField
{
    movingWall
    {
        type            fixedValue;
        value           nonuniform List<vector> 0();
    }
    fixedWalls
    {
        type            noSlip;
    }
    frontAndBack
    {
        type            empty;
    }
    procBoundary2to0
    {
        type            processor;
        value           nonuniform List<vector> 8((-0.0374921 0.00568377 0) (-0.095306 0.0277904 0) (-0.14971 0.0709909 0) (-0.201792 0.128928 0) (-0.250146 0.199747 0) (-0.294181 0.282706 0) (-0.333702 0.376789 0) (-0.368662 0.480303 0));
    }
    procBoundary2to3
    {
        type            processor;
        value           nonuniform List<vector> 5((-0.512249 0.570566 0) (-0.617346 0.514017 0) (-0.709522 0.426522 0) (-0.78513 0.311937 0) (-0.840847 0.174549 0));
    }
    procBoundary2to5
    {
        type            processor;
        value           nonuniform List<vector> 8((-0.0950226 -0.00025032 0) (-0.232748 -0.00144205 0) (-0.346105 -0.00398334 0) (-0.449152 -0.00692122 0) (-0.546112 -0.00929939 0) (-0.638765 -0.00968152 0) (-0.726716 -0.0062236 0) (-0.807041 0.0029167 0));
    }
}


// ************************************************************************* //
