/*--------------------------------*- C++ -*----------------------------------*\
  =========                 |
  \\      /  F ield         | OpenFOAM: The Open Source CFD Toolbox
   \\    /   O peration     | Website:  https://openfoam.org
    \\  /    A nd           | Version:  9
     \\/     M anipulation  |
\*---------------------------------------------------------------------------*/
FoamFile
{
    format      ascii;
    class       surfaceScalarField;
    location    "0.09";
    object      phi;
}
// * * * * * * * * * * * * * * * * * * * * * * * * * * * * * * * * * * * * * //

dimensions      [0 3 -1 0 0 0 0];

internalField   nonuniform List<scalar> 
67
(
-2.05637e-06
6.3744e-07
-2.66068e-06
6.04305e-07
-3.17184e-06
5.11157e-07
-3.54065e-06
3.68819e-07
1.88701e-07
-6.41141e-06
2.19159e-06
-7.84953e-06
2.04242e-06
-9.04254e-06
1.70417e-06
-9.88175e-06
1.20803e-06
5.90335e-07
-1.05396e-05
4.48725e-06
-1.26249e-05
4.12775e-06
-1.43337e-05
3.41299e-06
-1.55215e-05
2.39576e-06
1.1435e-06
-1.41347e-05
7.4433e-06
-1.6787e-05
6.78002e-06
-1.89457e-05
5.57174e-06
-2.04444e-05
3.89442e-06
1.84928e-06
-1.73359e-05
1.10039e-05
-2.05121e-05
9.95626e-06
-2.30976e-05
8.15718e-06
-2.49112e-05
5.70801e-06
2.74322e-06
-2.02515e-05
1.51224e-05
-2.39233e-05
1.3628e-05
-2.6931e-05
1.11649e-05
-2.90846e-05
7.86163e-06
3.88115e-06
-2.29157e-05
1.97499e-05
-2.7051e-05
1.77634e-05
-3.04744e-05
1.45883e-05
-3.29936e-05
1.03809e-05
5.32339e-06
-2.53076e-05
-2.9851e-05
-3.36602e-05
-3.65483e-05
)
;

boundaryField
{
    movingWall
    {
        type            calculated;
        value           nonuniform List<scalar> 0();
    }
    fixedWalls
    {
        type            calculated;
        value           uniform 0;
    }
    frontAndBack
    {
        type            empty;
        value           nonuniform List<scalar> 0();
    }
    procBoundary2to0
    {
        type            processor;
        value           nonuniform List<scalar> 8(1.41893e-06 4.85726e-06 8.24393e-06 1.11787e-05 1.37753e-05 1.6133e-05 1.82882e-05 2.02409e-05);
    }
    procBoundary2to3
    {
        type            processor;
        value           nonuniform List<scalar> 5(2.48166e-05 2.23068e-05 1.83975e-05 1.32689e-05 7.11515e-06);
    }
    procBoundary2to5
    {
        type            processor;
        value           nonuniform List<scalar> 8(-3.72935e-06 -1.02834e-05 -1.60746e-05 -2.11502e-05 -2.58051e-05 -3.02226e-05 -3.44359e-05 -3.83401e-05);
    }
}


// ************************************************************************* //
