/*--------------------------------*- C++ -*----------------------------------*\
  =========                 |
  \\      /  F ield         | OpenFOAM: The Open Source CFD Toolbox
   \\    /   O peration     | Website:  https://openfoam.org
    \\  /    A nd           | Version:  9
     \\/     M anipulation  |
\*---------------------------------------------------------------------------*/
FoamFile
{
    format      ascii;
    class       volVectorField;
    location    "0.01";
    object      U;
}
// * * * * * * * * * * * * * * * * * * * * * * * * * * * * * * * * * * * * * //

dimensions      [0 1 -1 0 0 0 0];

internalField   nonuniform List<vector> 
40
(
(-0.00572933 0.0014893 0)
(-0.0103404 0.00173691 0)
(-0.01454 0.00165018 0)
(-0.0179612 0.00135006 0)
(-0.0203694 0.000925679 0)
(-0.0389164 0.00799061 0)
(-0.0478372 0.007928 0)
(-0.055369 0.00686537 0)
(-0.0610268 0.00512756 0)
(-0.0644963 0.00305073 0)
(-0.0722411 0.0186706 0)
(-0.0836828 0.0171952 0)
(-0.0927372 0.0140913 0)
(-0.0990574 0.00984357 0)
(-0.102345 0.00491515 0)
(-0.092272 0.032567 0)
(-0.10627 0.0285333 0)
(-0.117032 0.0224539 0)
(-0.12427 0.0148468 0)
(-0.127716 0.00631977 0)
(-0.105904 0.0495733 0)
(-0.122534 0.0420965 0)
(-0.135206 0.0322188 0)
(-0.143644 0.0205959 0)
(-0.147584 0.00787533 0)
(-0.118842 0.0695111 0)
(-0.138158 0.0578846 0)
(-0.152821 0.0434968 0)
(-0.162575 0.0271995 0)
(-0.167242 0.0097221 0)
(-0.134148 0.0923783 0)
(-0.156228 0.0760228 0)
(-0.172911 0.0564773 0)
(-0.183994 0.0348797 0)
(-0.189366 0.0121129 0)
(-0.153512 0.118403 0)
(-0.178327 0.0965783 0)
(-0.197052 0.0712561 0)
(-0.209375 0.0438325 0)
(-0.215626 0.015031 0)
)
;

boundaryField
{
    movingWall
    {
        type            fixedValue;
        value           nonuniform List<vector> 0();
    }
    fixedWalls
    {
        type            noSlip;
    }
    frontAndBack
    {
        type            empty;
    }
    procBoundary2to0
    {
        type            processor;
        value           nonuniform List<vector> 8((-0.000142168 6.50383e-05 0) (-0.00250636 0.000572026 0) (-0.00496918 0.00152692 0) (-0.00634068 0.00286911 0) (-0.00719879 0.0045431 0) (-0.00801372 0.00650687 0) (-0.00902347 0.00876351 0) (-0.010358 0.0113365 0));
    }
    procBoundary2to3
    {
        type            processor;
        value           nonuniform List<vector> 5((-0.0150004 0.0123896 0) (-0.0173048 0.00999175 0) (-0.0190132 0.00728914 0) (-0.0201248 0.00441612 0) (-0.0206727 0.00146197 0));
    }
    procBoundary2to5
    {
        type            processor;
        value           nonuniform List<vector> 8((-0.00180963 3.81802e-05 0) (-0.00548826 6.41763e-05 0) (-0.00857464 -3.61564e-05 0) (-0.0106604 -0.00023685 0) (-0.0123201 -0.000474586 0) (-0.0139749 -0.000731191 0) (-0.0158522 -0.000990204 0) (-0.0180607 -0.00126219 0));
    }
}


// ************************************************************************* //
