/*--------------------------------*- C++ -*----------------------------------*\
  =========                 |
  \\      /  F ield         | OpenFOAM: The Open Source CFD Toolbox
   \\    /   O peration     | Website:  https://openfoam.org
    \\  /    A nd           | Version:  9
     \\/     M anipulation  |
\*---------------------------------------------------------------------------*/
FoamFile
{
    format      ascii;
    class       volVectorField;
    location    "0.03";
    object      U;
}
// * * * * * * * * * * * * * * * * * * * * * * * * * * * * * * * * * * * * * //

dimensions      [0 1 -1 0 0 0 0];

internalField   nonuniform List<vector> 
40
(
(-0.00664768 0.0933328 0)
(-0.0387138 0.22327 0)
(-0.0983138 0.295037 0)
(-0.168859 0.323261 0)
(-0.240062 0.321991 0)
(-0.00857424 0.115231 0)
(-0.0477418 0.276549 0)
(-0.118546 0.365485 0)
(-0.200716 0.399037 0)
(-0.282378 0.395926 0)
(-0.011356 0.142831 0)
(-0.059956 0.341261 0)
(-0.144702 0.448562 0)
(-0.0151204 0.178 0)
(-0.0753223 0.419991 0)
(-0.175309 0.545852 0)
(-0.0201768 0.222632 0)
(-0.0939398 0.514415 0)
(-0.209039 0.656589 0)
(-0.0275128 0.279225 0)
(-0.11721 0.625176 0)
(-0.245018 0.776949 0)
(-0.0393266 0.352521 0)
(-0.148713 0.752668 0)
(-0.28252 0.90007 0)
(-0.0590591 0.451548 0)
(-0.191631 0.894499 0)
(-0.314214 1.01082 0)
(-0.0891699 0.593684 0)
(-0.241427 1.03807 0)
(-0.309612 1.07483 0)
(-0.116638 0.805073 0)
(-0.254319 1.13769 0)
(-0.170293 1.02096 0)
(-0.0145336 1.00643 0)
(-0.00781453 1.05185 0)
(0.385211 0.757755 0)
(1.10697 0.546531 0)
(1.43687 0.485885 0)
(2.01404 0.302856 0)
)
;

boundaryField
{
    movingWall
    {
        type            fixedValue;
        value           uniform (3.83379 0 0);
    }
    fixedWalls
    {
        type            noSlip;
    }
    frontAndBack
    {
        type            empty;
    }
    procBoundary1to0
    {
        type            processor;
        value           nonuniform List<vector> 5((-0.00467752 0.0670501 0) (-0.0282629 0.157583 0) (-0.0730298 0.206018 0) (-0.126311 0.224488 0) (-0.180329 0.222903 0));
    }
    procBoundary1to3
    {
        type            processor;
        value           nonuniform List<vector> 8((-0.268078 0.259753 0) (-0.213864 0.425173 0) (-0.314687 0.317929 0) (-0.294854 0.416596 0) (-0.213864 0.425173 0) (-0.254331 0.513095 0) (-0.294375 0.608198 0) (-0.329398 0.70412 0));
    }
    procBoundary1to4
    {
        type            processor;
        value           nonuniform List<vector> 6((-0.351826 0.790281 0) (-0.342013 0.847806 0) (-0.251349 0.843017 0) (0.0303525 0.724292 0) (0.729377 0.462722 0) (2.18944 0.159814 0));
    }
}


// ************************************************************************* //
