/*--------------------------------*- C++ -*----------------------------------*\
  =========                 |
  \\      /  F ield         | OpenFOAM: The Open Source CFD Toolbox
   \\    /   O peration     | Website:  https://openfoam.org
    \\  /    A nd           | Version:  9
     \\/     M anipulation  |
\*---------------------------------------------------------------------------*/
FoamFile
{
    format      ascii;
    class       surfaceScalarField;
    location    "0.03";
    object      phi;
}
// * * * * * * * * * * * * * * * * * * * * * * * * * * * * * * * * * * * * * //

dimensions      [0 3 -1 0 0 0 0];

internalField   nonuniform List<scalar> 
67
(
-2.02825e-05
4.49253e-05
-2.24336e-05
3.98939e-05
-2.33163e-05
3.35522e-05
-2.3426e-05
2.68435e-05
2.0226e-05
-1.8393e-05
4.63832e-05
-1.78209e-05
3.93218e-05
-1.61289e-05
3.18601e-05
-1.40408e-05
2.47554e-05
-1.20702e-05
1.82553e-05
-1.05617e-05
1.24145e-05
7.1388e-06
-1.13234e-05
4.32909e-05
-6.48598e-06
3.44844e-05
-1.23607e-06
2.66102e-05
3.62148e-06
1.98979e-05
7.63397e-06
1.42428e-05
1.05596e-05
9.48881e-06
5.41581e-06
6.87504e-06
3.30731e-05
1.71209e-05
2.42386e-05
2.61993e-05
1.75317e-05
3.36417e-05
1.24555e-05
3.93253e-05
8.55919e-06
4.32986e-05
5.51552e-06
3.05626e-06
4.75615e-05
1.53172e-05
6.17568e-05
1.00433e-05
7.26632e-05
6.62531e-06
8.07598e-05
4.35889e-06
8.65181e-05
2.80095e-06
9.03382e-05
1.69536e-06
8.67593e-07
0.000126048
0.000136092
0.000142717
0.000147076
0.000149877
0.000151572
)
;

boundaryField
{
    movingWall
    {
        type            calculated;
        value           uniform 0;
    }
    fixedWalls
    {
        type            calculated;
        value           nonuniform List<scalar> 0();
    }
    frontAndBack
    {
        type            empty;
        value           nonuniform List<scalar> 0();
    }
    procBoundary4to1
    {
        type            processor;
        value           nonuniform List<scalar> 6(1.64053e-05 1.69352e-05 1.44157e-05 3.34275e-06 -2.98057e-05 -0.000110731);
    }
    procBoundary4to3
    {
        type            processor;
        value           nonuniform List<scalar> 8(-4.10482e-05 -3.77428e-05 -3.26695e-05 -2.67337e-05 -2.04592e-05 -2.31928e-05 -1.39229e-05 -7.95683e-06);
    }
    procBoundary4to6
    {
        type            processor;
        value           nonuniform List<scalar> 5(-9.74364e-06 1.22826e-05 4.56581e-05 9.25269e-05 0.00015244);
    }
}


// ************************************************************************* //
