/*--------------------------------*- C++ -*----------------------------------*\
  =========                 |
  \\      /  F ield         | OpenFOAM: The Open Source CFD Toolbox
   \\    /   O peration     | Website:  https://openfoam.org
    \\  /    A nd           | Version:  8
     \\/     M anipulation  |
\*---------------------------------------------------------------------------*/
FoamFile
{
    version     2.0;
    format      ascii;
    class       volScalarField;
    location    "1";
    object      p;
}
// * * * * * * * * * * * * * * * * * * * * * * * * * * * * * * * * * * * * * //

dimensions      [0 2 -2 0 0 0 0];

internalField   nonuniform List<scalar> 
400
(
-0.0991622
-0.198132
-0.251269
-0.276641
-0.280271
-0.268054
-0.243112
-0.206034
-0.159463
-0.10639
-0.0490496
0.0103754
0.0691187
0.124038
0.17226
0.211736
0.241473
0.261457
0.272467
0.276129
-0.19852
-0.238988
-0.26851
-0.283655
-0.282637
-0.267781
-0.241438
-0.2043
-0.158554
-0.106556
-0.0501245
0.00871822
0.0671914
0.12202
0.170138
0.209323
0.238507
0.257616
0.267014
0.266661
-0.250207
-0.268413
-0.280215
-0.284614
-0.277283
-0.259933
-0.233862
-0.198765
-0.156187
-0.107909
-0.055076
0.000849691
0.0572837
0.110723
0.15762
0.195326
0.222661
0.239765
0.247206
0.245454
-0.273208
-0.280705
-0.280709
-0.276512
-0.263886
-0.244756
-0.220008
-0.188511
-0.151183
-0.109187
-0.0627591
-0.0124204
0.0397415
0.0900902
0.134526
0.169839
0.194594
0.209059
0.214146
0.210892
-0.278031
-0.279062
-0.271613
-0.26102
-0.244059
-0.22351
-0.200424
-0.173104
-0.141981
-0.107899
-0.0703052
-0.028544
0.0162158
0.060591
0.100202
0.131453
0.152675
0.164047
0.166781
0.162309
-0.270341
-0.267635
-0.255725
-0.241044
-0.221107
-0.19973
-0.17863
-0.155741
-0.13099
-0.105423
-0.0782874
-0.0478065
-0.0137414
0.0214698
0.0537453
0.0793931
0.0964703
0.104766
0.105737
0.100991
-0.255766
-0.251829
-0.23826
-0.222215
-0.201246
-0.179957
-0.161165
-0.142753
-0.123658
-0.105578
-0.0887025
-0.0707959
-0.049944
-0.0267623
-0.00409832
0.0148232
0.0277881
0.0337808
0.0341979
0.0304779
-0.239634
-0.236792
-0.2245
-0.210288
-0.190981
-0.171257
-0.155308
-0.141919
-0.127866
-0.115187
-0.106342
-0.10005
-0.0930326
-0.0833435
-0.0714893
-0.0594388
-0.0495785
-0.0442445
-0.0427787
-0.0445301
-0.224376
-0.224889
-0.216883
-0.208207
-0.194437
-0.179097
-0.167147
-0.160704
-0.152927
-0.144304
-0.140168
-0.142101
-0.146707
-0.14941
-0.147511
-0.140878
-0.131847
-0.12464
-0.120461
-0.12045
-0.20822
-0.213779
-0.212741
-0.213419
-0.210309
-0.204527
-0.198652
-0.202453
-0.205337
-0.20274
-0.20147
-0.207376
-0.218968
-0.230093
-0.234786
-0.230229
-0.218367
-0.205786
-0.197076
-0.196658
-0.185028
-0.196172
-0.204631
-0.218398
-0.231716
-0.244087
-0.248057
-0.265419
-0.285287
-0.294949
-0.298876
-0.306596
-0.320279
-0.334224
-0.34031
-0.333074
-0.313618
-0.290941
-0.274607
-0.2744
-0.145635
-0.162219
-0.184306
-0.216117
-0.250932
-0.293038
-0.314381
-0.347563
-0.388498
-0.417521
-0.432673
-0.443989
-0.457231
-0.4691
-0.471453
-0.457029
-0.425247
-0.386455
-0.355937
-0.351907
-0.081205
-0.104242
-0.14802
-0.207308
-0.266818
-0.347328
-0.398135
-0.450573
-0.511811
-0.56248
-0.593919
-0.61252
-0.625076
-0.631566
-0.626636
-0.603006
-0.556582
-0.4955
-0.438917
-0.418542
0.013034
-0.020889
-0.096486
-0.197899
-0.285952
-0.398551
-0.487242
-0.567286
-0.649434
-0.721197
-0.771543
-0.799268
-0.807242
-0.801223
-0.784155
-0.751746
-0.693351
-0.607572
-0.510016
-0.452666
0.138476
0.0836276
-0.0259059
-0.174922
-0.303411
-0.425903
-0.541564
-0.658035
-0.774285
-0.877831
-0.95733
-0.999722
-0.983559
-0.941314
-0.896489
-0.852128
-0.788227
-0.684773
-0.539543
-0.425641
0.302291
0.209243
0.077973
-0.0842308
-0.265848
-0.397331
-0.527605
-0.689789
-0.875287
-1.05206
-1.18698
-1.24019
-1.18278
-1.05155
-0.917785
-0.826294
-0.753588
-0.651784
-0.480296
-0.309951
0.525149
0.382682
0.239231
0.1167
-0.0926239
-0.292199
-0.515409
-0.78283
-1.07162
-1.33354
-1.51611
-1.57679
-1.49642
-1.26376
-0.954757
-0.668829
-0.483146
-0.390121
-0.265291
-0.0887991
0.837313
0.690098
0.543476
0.366769
0.0752467
-0.269879
-0.665238
-1.06741
-1.416
-1.67867
-1.84465
-1.90848
-1.85959
-1.66485
-1.27405
-0.695344
-0.132084
0.200144
0.247595
0.314987
1.45437
1.25534
0.951615
0.481939
-0.106476
-0.645415
-1.0863
-1.4457
-1.73062
-1.94175
-2.08093
-2.148
-2.1335
-2.00913
-1.71972
-1.17913
-0.310796
0.604538
1.10263
1.19923
2.09967
1.62283
0.830168
-0.00149029
-0.584913
-1.00264
-1.34167
-1.62754
-1.86049
-2.03836
-2.16101
-2.22716
-2.22831
-2.14404
-1.94132
-1.5751
-0.944482
0.126418
1.46151
2.18925
)
;

boundaryField
{
    movingWall
    {
        type            zeroGradient;
    }
    fixedWalls
    {
        type            zeroGradient;
    }
    frontAndBack
    {
        type            empty;
    }
}


// ************************************************************************* //
