/*--------------------------------*- C++ -*----------------------------------*\
  =========                 |
  \\      /  F ield         | OpenFOAM: The Open Source CFD Toolbox
   \\    /   O peration     | Website:  https://openfoam.org
    \\  /    A nd           | Version:  8
     \\/     M anipulation  |
\*---------------------------------------------------------------------------*/
FoamFile
{
    version     2.0;
    format      ascii;
    class       surfaceScalarField;
    location    "1";
    object      phi;
}
// * * * * * * * * * * * * * * * * * * * * * * * * * * * * * * * * * * * * * //

dimensions      [0 3 -1 0 0 0 0];

internalField   nonuniform List<scalar> 
760
(
6.39662e-08
-6.41743e-08
-1.33885e-07
1.97852e-07
-6.01321e-07
4.67439e-07
-1.24958e-06
6.4826e-07
-1.98591e-06
7.36325e-07
-2.72925e-06
7.43344e-07
-3.41072e-06
6.8147e-07
-3.97095e-06
5.60223e-07
-4.35825e-06
3.87301e-07
-4.52987e-06
1.71628e-07
-4.45661e-06
-7.32666e-08
-4.12975e-06
-3.26861e-07
-3.56843e-06
-5.61313e-07
-2.82483e-06
-7.43602e-07
-1.98437e-06
-8.40462e-07
-1.15875e-06
-8.25615e-07
-4.7055e-07
-6.88202e-07
-2.98315e-08
-4.40719e-07
1.02182e-07
-1.32011e-07
1.02184e-07
-1.96252e-07
1.32068e-07
-9.65977e-07
9.67587e-07
-2.25637e-06
1.75784e-06
-3.90539e-06
2.29728e-06
-5.72702e-06
2.55796e-06
-7.54256e-06
2.55888e-06
-9.19055e-06
2.32946e-06
-1.05289e-05
1.89855e-06
-1.14363e-05
1.29477e-06
-1.1818e-05
5.5328e-07
-1.16151e-05
-2.7619e-07
-1.08179e-05
-1.12406e-06
-9.47836e-06
-1.90081e-06
-7.71768e-06
-2.50429e-06
-5.7236e-06
-2.83454e-06
-3.73383e-06
-2.81539e-06
-2.00231e-06
-2.41973e-06
-7.50059e-07
-1.69297e-06
-1.03258e-07
-7.78818e-07
-1.07149e-09
-5.06052e-07
6.38126e-07
-1.89203e-06
2.35356e-06
-3.9665e-06
3.83231e-06
-6.4891e-06
4.81988e-06
-9.20709e-06
5.27594e-06
-1.18784e-05
5.23016e-06
-1.42816e-05
4.7327e-06
-1.62206e-05
3.83749e-06
-1.75285e-05
2.60273e-06
-1.80766e-05
1.10138e-06
-1.77867e-05
-5.66116e-07
-1.66471e-05
-2.26366e-06
-1.47278e-05
-3.82007e-06
-1.21899e-05
-5.04218e-06
-9.283e-06
-5.74148e-06
-6.32516e-06
-5.77323e-06
-3.66214e-06
-5.08275e-06
-1.60727e-06
-3.74784e-06
-3.71279e-07
-2.01481e-06
-3.72349e-07
-7.89293e-07
1.42743e-06
-2.76797e-06
4.33223e-06
-5.58656e-06
6.65091e-06
-8.91095e-06
8.14427e-06
-1.24258e-05
8.79081e-06
-1.58414e-05
8.64573e-06
-1.88963e-05
7.78761e-06
-2.13592e-05
6.30041e-06
-2.30328e-05
4.27637e-06
-2.37628e-05
1.83132e-06
-2.34514e-05
-8.77499e-07
-2.20757e-05
-3.63937e-06
-1.97056e-05
-6.19014e-06
-1.65181e-05
-8.22965e-06
-1.28001e-05
-9.45951e-06
-8.93224e-06
-9.64111e-06
-5.34808e-06
-8.66691e-06
-2.46882e-06
-6.6271e-06
-6.2611e-07
-3.85751e-06
-9.98458e-07
-1.04163e-06
2.46905e-06
-3.5692e-06
6.8598e-06
-7.08178e-06
1.01635e-05
-1.11484e-05
1.22109e-05
-1.53938e-05
1.30362e-05
-1.94896e-05
1.27416e-05
-2.31473e-05
1.14453e-05
-2.6113e-05
9.26609e-06
-2.81678e-05
6.33124e-06
-2.91347e-05
2.79821e-06
-2.88915e-05
-1.12072e-06
-2.73904e-05
-5.14049e-06
-2.46811e-05
-8.89939e-06
-2.09336e-05
-1.19771e-05
-1.64524e-05
-1.39407e-05
-1.16723e-05
-1.44213e-05
-7.12343e-06
-1.32158e-05
-3.36209e-06
-1.03884e-05
-8.76916e-07
-6.34268e-06
-1.87537e-06
-1.26656e-06
3.73561e-06
-4.29347e-06
9.88672e-06
-8.44245e-06
1.43125e-05
-1.31909e-05
1.69593e-05
-1.81087e-05
1.79539e-05
-2.28373e-05
1.74702e-05
-2.70712e-05
1.56792e-05
-3.05441e-05
1.2739e-05
-3.30224e-05
8.80948e-06
-3.43071e-05
4.08296e-06
-3.42451e-05
-1.18269e-06
-3.2749e-05
-6.6366e-06
-2.98262e-05
-1.18222e-05
-2.56136e-05
-1.61898e-05
-2.04104e-05
-1.91439e-05
-1.46945e-05
-2.01372e-05
-9.10236e-06
-1.88079e-05
-4.35781e-06
-1.5133e-05
-1.15161e-06
-9.54887e-06
-3.02699e-06
-1.4664e-06
5.20201e-06
-4.94003e-06
1.33603e-05
-9.65946e-06
1.90319e-05
-1.50188e-05
2.23187e-05
-2.05411e-05
2.34763e-05
-2.58473e-05
2.27764e-05
-3.06257e-05
2.04577e-05
-3.46081e-05
1.67214e-05
-3.75542e-05
1.17555e-05
-3.92463e-05
5.7751e-06
-3.94959e-05
-9.3312e-07
-3.81624e-05
-7.97012e-06
-3.51876e-05
-1.4797e-05
-3.06447e-05
-2.07327e-05
-2.47947e-05
-2.49938e-05
-1.81351e-05
-2.67969e-05
-1.14084e-05
-2.55345e-05
-5.53963e-06
-2.10018e-05
-1.48254e-06
-1.3606e-05
-4.50953e-06
-1.64182e-06
6.84384e-06
-5.50592e-06
1.72245e-05
-1.07183e-05
2.42443e-05
-1.65979e-05
2.81983e-05
-2.26305e-05
2.95089e-05
-2.84282e-05
2.85741e-05
-3.36868e-05
2.57163e-05
-3.81498e-05
2.11844e-05
-4.15823e-05
1.5188e-05
-4.37565e-05
7.94924e-06
-4.44499e-05
-2.39672e-07
-4.3461e-05
-8.95907e-06
-4.06449e-05
-1.7613e-05
-3.59753e-05
-2.54023e-05
-2.96288e-05
-3.13403e-05
-2.20772e-05
-3.43485e-05
-1.41476e-05
-3.34641e-05
-6.99111e-06
-2.81582e-05
-1.90372e-06
-1.86933e-05
-6.41325e-06
-1.79361e-06
8.63745e-06
-5.98912e-06
2.142e-05
-1.16029e-05
2.9858e-05
-1.78836e-05
3.4479e-05
-2.429e-05
3.59153e-05
-3.04399e-05
3.4724e-05
-3.60539e-05
3.13303e-05
-4.09058e-05
2.60363e-05
-4.47846e-05
1.90668e-05
-4.74687e-05
1.06333e-05
-4.87138e-05
1.00546e-06
-4.82596e-05
-9.41327e-06
-4.58613e-05
-2.00114e-05
-4.13576e-05
-2.9906e-05
-3.47813e-05
-3.79166e-05
-2.6505e-05
-4.26248e-05
-1.73811e-05
-4.25881e-05
-8.7866e-06
-3.67527e-05
-2.45079e-06
-2.50292e-05
-8.86403e-06
-1.92703e-06
1.05645e-05
-6.39794e-06
2.58909e-05
-1.23079e-05
3.57679e-05
-1.88341e-05
4.10053e-05
-2.54196e-05
4.25008e-05
-3.17067e-05
4.10111e-05
-3.74629e-05
3.70865e-05
-4.25165e-05
3.10899e-05
-4.67061e-05
2.32564e-05
-4.98424e-05
1.37696e-05
-5.16843e-05
2.84739e-06
-5.19307e-05
-9.16687e-06
-5.02391e-05
-2.17029e-05
-4.62876e-05
-3.38575e-05
-3.98999e-05
-4.43042e-05
-3.12459e-05
-5.12788e-05
-2.10902e-05
-5.27438e-05
-1.09808e-05
-4.68621e-05
-3.16242e-06
-3.28475e-05
-1.20264e-05
-2.05909e-06
1.26236e-05
-6.76627e-06
3.05981e-05
-1.28575e-05
4.18591e-05
-1.94297e-05
4.75775e-05
-2.59251e-05
4.89962e-05
-3.20364e-05
4.71224e-05
-3.7607e-05
4.26571e-05
-4.25496e-05
3.60325e-05
-4.67837e-05
2.74905e-05
-5.01881e-05
1.7174e-05
-5.25626e-05
5.22195e-06
-5.3603e-05
-8.12648e-06
-5.28955e-05
-2.24104e-05
-4.99551e-05
-3.67979e-05
-4.4342e-05
-4.99174e-05
-3.58993e-05
-5.97215e-05
-2.5126e-05
-6.35172e-05
-1.35912e-05
-5.83969e-05
-4.08251e-06
-4.23562e-05
-1.6109e-05
-2.23008e-06
1.48536e-05
-7.17448e-06
3.55425e-05
-1.33269e-05
4.80116e-05
-1.96898e-05
5.39404e-05
-2.57319e-05
5.50383e-05
-3.12352e-05
5.26257e-05
-3.61567e-05
4.75786e-05
-4.05281e-05
4.04039e-05
-4.43853e-05
3.13477e-05
-4.77139e-05
2.05026e-05
-5.04031e-05
7.91111e-06
-5.22009e-05
-6.32862e-06
-5.26789e-05
-2.19325e-05
-5.12252e-05
-3.82516e-05
-4.71179e-05
-5.40246e-05
-3.97563e-05
-6.7083e-05
-2.91375e-05
-7.4136e-05
-1.65665e-05
-7.09679e-05
-5.26205e-06
-5.36606e-05
-2.1371e-05
-2.52228e-06
1.73759e-05
-7.77508e-06
4.07953e-05
-1.38579e-05
5.40943e-05
-1.96735e-05
5.9756e-05
-2.47743e-05
6.01392e-05
-2.90942e-05
5.69456e-05
-3.27536e-05
5.1238e-05
-3.59412e-05
4.35915e-05
-3.88408e-05
3.42473e-05
-4.15811e-05
2.32429e-05
-4.41875e-05
1.05175e-05
-4.65264e-05
-3.98965e-06
-4.82383e-05
-2.02207e-05
-4.86711e-05
-3.78188e-05
-4.68688e-05
-5.5827e-05
-4.17235e-05
-7.22283e-05
-3.2477e-05
-8.33825e-05
-1.97285e-05
-8.37164e-05
-6.75743e-06
-6.66317e-05
-2.81284e-05
-3.0899e-06
2.04658e-05
-8.81514e-06
4.65205e-05
-1.46415e-05
5.99207e-05
-1.94209e-05
6.45354e-05
-2.29114e-05
6.36296e-05
-2.52985e-05
5.93328e-05
-2.69303e-05
5.28698e-05
-2.81875e-05
4.48487e-05
-2.9423e-05
3.54828e-05
-3.09269e-05
2.47468e-05
-3.28924e-05
1.2483e-05
-3.53616e-05
-1.52042e-06
-3.81396e-05
-1.74427e-05
-4.06682e-05
-3.52902e-05
-4.1897e-05
-5.45982e-05
-4.02663e-05
-7.3859e-05
-3.40786e-05
-8.95702e-05
-2.26687e-05
-9.51263e-05
-8.61294e-06
-8.06874e-05
-3.67414e-05
-4.20011e-06
2.46659e-05
-1.06206e-05
5.29411e-05
-1.57949e-05
6.5095e-05
-1.87427e-05
6.74832e-05
-1.96703e-05
6.45572e-05
-1.9164e-05
5.88265e-05
-1.78683e-05
5.15741e-05
-1.63762e-05
4.33565e-05
-1.5203e-05
3.43097e-05
-1.47871e-05
2.43308e-05
-1.54842e-05
1.31801e-05
-1.75361e-05
5.31478e-07
-2.09881e-05
-1.39907e-05
-2.55306e-05
-3.07476e-05
-3.0253e-05
-4.98758e-05
-3.33809e-05
-7.07311e-05
-3.2301e-05
-9.06501e-05
-2.45526e-05
-0.000102875
-1.07865e-05
-9.44535e-05
-4.75279e-05
-6.2463e-06
3.09122e-05
-1.34044e-05
6.00992e-05
-1.69229e-05
6.86135e-05
-1.66366e-05
6.71969e-05
-1.36267e-05
6.15473e-05
-9.05089e-06
5.42507e-05
-3.88362e-06
4.64068e-05
1.1017e-06
3.83712e-05
5.28565e-06
3.01257e-05
8.14645e-06
2.147e-05
9.22346e-06
1.21031e-05
8.11096e-06
1.64398e-06
4.50732e-06
-1.03871e-05
-1.64642e-06
-2.45939e-05
-9.86099e-06
-4.16613e-05
-1.85919e-05
-6.20002e-05
-2.47092e-05
-8.45327e-05
-2.37474e-05
-0.000103837
-1.29129e-05
-0.000105288
-6.04408e-05
-9.56068e-06
4.04729e-05
-1.64254e-05
6.69638e-05
-1.58201e-05
6.80082e-05
-9.88839e-06
6.12652e-05
-1.1252e-06
5.27841e-05
8.70404e-06
4.44214e-05
1.84193e-05
3.66915e-05
2.72237e-05
2.95668e-05
3.45403e-05
2.28091e-05
3.98944e-05
1.61159e-05
4.28359e-05
9.16161e-06
4.28967e-05
1.5832e-06
3.95889e-05
-7.07924e-06
3.24681e-05
-1.74731e-05
2.13779e-05
-3.05711e-05
7.0523e-06
-4.76746e-05
-7.76926e-06
-6.97112e-05
-1.72122e-05
-9.43936e-05
-1.37619e-05
-0.000108738
-7.42027e-05
-1.34295e-05
5.39024e-05
-1.50793e-05
6.86136e-05
-5.09606e-06
5.8025e-05
9.8121e-06
4.63571e-05
2.58424e-05
3.67538e-05
4.1211e-05
2.90529e-05
5.50378e-05
2.28647e-05
6.68589e-05
1.77457e-05
7.63858e-05
1.32821e-05
8.33673e-05
9.13442e-06
8.7509e-05
5.01994e-06
8.84188e-05
6.73388e-07
8.55714e-05
-4.23181e-06
7.82606e-05
-1.01623e-05
6.56579e-05
-1.79684e-05
4.71835e-05
-2.92002e-05
2.37912e-05
-4.6319e-05
7.09954e-07
-7.13123e-05
-1.0217e-05
-9.78114e-05
-8.44197e-05
-9.40806e-06
6.33105e-05
8.82313e-06
5.03824e-05
3.51818e-05
3.16663e-05
6.00363e-05
2.15026e-05
8.1483e-05
1.53071e-05
9.94511e-05
1.10848e-05
0.000114199
8.1165e-06
0.000126011
5.93372e-06
0.000135092
4.20171e-06
0.000141525
2.70112e-06
0.00014526
1.28457e-06
0.000146091
-1.5731e-07
0.000143626
-1.76686e-06
0.000137164
-3.70024e-06
0.000125534
-6.33796e-06
0.000106885
-1.05519e-05
7.90698e-05
-1.85034e-05
4.22884e-05
-3.4531e-05
6.89638e-06
-6.24193e-05
-7.75233e-05
6.33105e-05
0.000113693
0.000145359
0.000166862
0.000182169
0.000193254
0.00020137
0.000207304
0.000211506
0.000214207
0.000215491
0.000215334
0.000213567
0.000209867
0.000203529
0.000192977
0.000174474
0.000139943
7.75233e-05
)
;

boundaryField
{
    movingWall
    {
        type            calculated;
        value           uniform 0;
    }
    fixedWalls
    {
        type            calculated;
        value           uniform 0;
    }
    frontAndBack
    {
        type            empty;
        value           nonuniform List<scalar> 0();
    }
}


// ************************************************************************* //
