/*--------------------------------*- C++ -*----------------------------------*\
  =========                 |
  \\      /  F ield         | OpenFOAM: The Open Source CFD Toolbox
   \\    /   O peration     | Website:  https://openfoam.org
    \\  /    A nd           | Version:  8
     \\/     M anipulation  |
\*---------------------------------------------------------------------------*/
FoamFile
{
    version     2.0;
    format      ascii;
    class       volVectorField;
    location    "1";
    object      U;
}
// * * * * * * * * * * * * * * * * * * * * * * * * * * * * * * * * * * * * * //

dimensions      [0 1 -1 0 0 0 0];

internalField   nonuniform List<vector> 
400
(
(0.00120356 -0.00120821 0)
(0.000401046 0.000672815 0)
(-0.00645125 0.0028674 0)
(-0.0179682 0.00434053 0)
(-0.0321741 0.00506934 0)
(-0.0472966 0.00518556 0)
(-0.0618306 0.00480609 0)
(-0.0744941 0.00400749 0)
(-0.0841733 0.00283749 0)
(-0.0899107 0.00134566 0)
(-0.090964 -0.000383525 0)
(-0.0869275 -0.00220713 0)
(-0.0778842 -0.0039165 0)
(-0.0645402 -0.0052529 0)
(-0.0482886 -0.00594618 0)
(-0.0311494 -0.00577345 0)
(-0.0155467 -0.0046289 0)
(-0.0039095 -0.00259445 0)
(0.00189186 -8.67169e-05 0)
(0.00157718 0.00152443 0)
(-0.000623362 -0.000512726 0)
(-0.0089639 0.00883913 0)
(-0.030056 0.0184027 0)
(-0.0603842 0.0249849 0)
(-0.0959792 0.0282384 0)
(-0.133167 0.028469 0)
(-0.168535 0.0260735 0)
(-0.199031 0.0213979 0)
(-0.222002 0.0147506 0)
(-0.235252 0.0064994 0)
(-0.237192 -0.00281653 0)
(-0.227079 -0.0124093 0)
(-0.205295 -0.0212349 0)
(-0.173562 -0.0280768 0)
(-0.135012 -0.0317278 0)
(-0.0940179 -0.0312539 0)
(-0.0556686 -0.0263048 0)
(-0.0249204 -0.0174127 0)
(-0.00569996 -0.00641518 0)
(0.0003125 0.00208285 0)
(-0.00307545 0.00649696 0)
(-0.0201053 0.0303303 0)
(-0.0555775 0.0520743 0)
(-0.102988 0.0669001 0)
(-0.156655 0.0739945 0)
(-0.211694 0.0737858 0)
(-0.263477 0.0670331 0)
(-0.307795 0.0545311 0)
(-0.340986 0.03711 0)
(-0.360044 0.015804 0)
(-0.362832 -0.00794514 0)
(-0.348381 -0.0321533 0)
(-0.317222 -0.0543042 0)
(-0.27165 -0.0715497 0)
(-0.215823 -0.0811204 0)
(-0.155562 -0.0809188 0)
(-0.0977068 -0.0702129 0)
(-0.049044 -0.0502782 0)
(-0.0155792 -0.025031 0)
(-0.00167172 -0.00260528 0)
(-0.00527194 0.0195496 0)
(-0.0305682 0.0642334 0)
(-0.0798748 0.101423 0)
(-0.143249 0.125949 0)
(-0.213206 0.137015 0)
(-0.283888 0.135369 0)
(-0.349834 0.122249 0)
(-0.406083 0.0990061 0)
(-0.448315 0.0671281 0)
(-0.472959 0.0284915 0)
(-0.477422 -0.0143412 0)
(-0.460416 -0.0579248 0)
(-0.422339 -0.0979503 0)
(-0.365623 -0.12956 0)
(-0.294935 -0.147998 0)
(-0.217087 -0.14958 0)
(-0.140411 -0.132843 0)
(-0.0736172 -0.0996011 0)
(-0.025339 -0.0557537 0)
(-0.00346087 -0.0125726 0)
(-0.00717287 0.0379674 0)
(-0.0400205 0.10953 0)
(-0.102244 0.165032 0)
(-0.180477 0.200197 0)
(-0.265429 0.214966 0)
(-0.350389 0.210798 0)
(-0.429298 0.189597 0)
(-0.496719 0.153367 0)
(-0.547901 0.104303 0)
(-0.57884 0.0451574 0)
(-0.586468 -0.020352 0)
(-0.568992 -0.0872499 0)
(-0.526331 -0.14929 0)
(-0.460593 -0.199329 0)
(-0.376499 -0.230185 0)
(-0.281536 -0.23599 0)
(-0.185506 -0.213887 0)
(-0.0994098 -0.165644 0)
(-0.0352316 -0.0987642 0)
(-0.00510995 -0.0275232 0)
(-0.00883595 0.0611574 0)
(-0.0484958 0.165315 0)
(-0.122542 0.241948 0)
(-0.214423 0.288665 0)
(-0.313147 0.306897 0)
(-0.411279 0.29928 0)
(-0.502358 0.26864 0)
(-0.580684 0.217723 0)
(-0.64126 0.149417 0)
(-0.679734 0.0672648 0)
(-0.692519 -0.0239733 0)
(-0.677098 -0.117879 0)
(-0.63253 -0.206245 0)
(-0.5601 -0.279409 0)
(-0.464055 -0.327229 0)
(-0.352172 -0.340805 0)
(-0.235672 -0.314845 0)
(-0.128273 -0.250111 0)
(-0.0462041 -0.15519 0)
(-0.00687293 -0.0476242 0)
(-0.0103013 0.088596 0)
(-0.0560383 0.230584 0)
(-0.140685 0.330986 0)
(-0.244799 0.390139 0)
(-0.355863 0.411688 0)
(-0.465883 0.39996 0)
(-0.568205 0.358978 0)
(-0.657092 0.292315 0)
(-0.7275 0.20348 0)
(-0.774853 0.0966116 0)
(-0.795033 -0.022748 0)
(-0.784633 -0.146995 0)
(-0.741479 -0.266096 0)
(-0.665478 -0.367733 0)
(-0.559728 -0.438238 0)
(-0.431672 -0.464601 0)
(-0.293643 -0.437606 0)
(-0.162367 -0.355512 0)
(-0.0594109 -0.22712 0)
(-0.00904774 -0.0736631 0)
(-0.0115886 0.119788 0)
(-0.0626572 0.304246 0)
(-0.156535 0.43072 0)
(-0.27115 0.503034 0)
(-0.392653 0.527779 0)
(-0.512697 0.511511 0)
(-0.62469 0.459758 0)
(-0.723141 0.376998 0)
(-0.803229 0.267244 0)
(-0.860366 0.134946 0)
(-0.890023 -0.0139765 0)
(-0.887849 -0.171183 0)
(-0.850164 -0.325175 0)
(-0.774925 -0.461056 0)
(-0.663235 -0.561171 0)
(-0.521216 -0.607183 0)
(-0.361511 -0.583977 0)
(-0.203763 -0.485013 0)
(-0.07608 -0.317683 0)
(-0.0119626 -0.107104 0)
(-0.0127182 0.154243 0)
(-0.0683802 0.385136 0)
(-0.169976 0.539464 0)
(-0.292939 0.625287 0)
(-0.422261 0.65293 0)
(-0.549492 0.631779 0)
(-0.668428 0.56921 0)
(-0.774191 0.470706 0)
(-0.862554 0.340642 0)
(-0.929283 0.18344 0)
(-0.969736 0.00486717 0)
(-0.978785 -0.186646 0)
(-0.951162 -0.378791 0)
(-0.882413 -0.554531 0)
(-0.770693 -0.692093 0)
(-0.619402 -0.766687 0)
(-0.43997 -0.754891 0)
(-0.254107 -0.64199 0)
(-0.0974717 -0.430946 0)
(-0.0159997 -0.150115 0)
(-0.013758 0.191514 0)
(-0.0733979 0.472068 0)
(-0.181134 0.655245 0)
(-0.309803 0.754186 0)
(-0.443366 0.7839 0)
(-0.573586 0.757321 0)
(-0.69507 0.684083 0)
(-0.804022 0.570798 0)
(-0.897311 0.422086 0)
(-0.971577 0.241977 0)
(-1.02259 0.0354938 0)
(-1.04491 -0.189668 0)
(-1.03193 -0.421379 0)
(-0.976612 -0.641408 0)
(-0.873289 -0.824363 0)
(-0.720922 -0.938355 0)
(-0.527335 -0.949111 0)
(-0.314182 -0.829109 0)
(-0.124866 -0.571607 0)
(-0.0216467 -0.205618 0)
(-0.0149032 0.231347 0)
(-0.0783021 0.56402 0)
(-0.190731 0.775841 0)
(-0.321939 0.886216 0)
(-0.454953 0.916132 0)
(-0.582208 0.882962 0)
(-0.699695 0.799087 0)
(-0.805284 0.672415 0)
(-0.897552 0.507724 0)
(-0.974679 0.308338 0)
(-1.03359 0.0779458 0)
(-1.06931 -0.177407 0)
(-1.0746 -0.447051 0)
(-1.04015 -0.713118 0)
(-0.956046 -0.948024 0)
(-0.815061 -1.11319 0)
(-0.618213 -1.16146 0)
(-0.383213 -1.04684 0)
(-0.159512 -0.744401 0)
(-0.0295775 -0.277373 0)
(-0.0166134 0.274018 0)
(-0.0844433 0.660509 0)
(-0.200539 0.898895 0)
(-0.330502 1.0169 0)
(-0.456622 1.04341 0)
(-0.572773 1.00137 0)
(-0.677133 0.906419 0)
(-0.769962 0.767935 0)
(-0.852219 0.590805 0)
(-0.924348 0.377416 0)
(-0.98529 0.129651 0)
(-1.03159 -0.148958 0)
(-1.05654 -0.450627 0)
(-1.04965 -0.759952 0)
(-0.997058 -1.04972 0)
(-0.884227 -1.27676 0)
(-0.701812 -1.38067 0)
(-0.457736 -1.29122 0)
(-0.202453 -0.953017 0)
(-0.0407637 -0.370136 0)
(-0.0198519 0.320981 0)
(-0.0944489 0.762159 0)
(-0.213827 1.02197 0)
(-0.337758 1.1405 0)
(-0.448444 1.15743 0)
(-0.542591 1.10261 0)
(-0.621736 0.995402 0)
(-0.689386 0.846672 0)
(-0.749542 0.661339 0)
(-0.805547 0.440719 0)
(-0.859157 0.184629 0)
(-0.909546 -0.106511 0)
(-0.952071 -0.429082 0)
(-0.976834 -0.772493 0)
(-0.96767 -1.11353 0)
(-0.902909 -1.40874 0)
(-0.760001 -1.58719 0)
(-0.529818 -1.55075 0)
(-0.25401 -1.19815 0)
(-0.0565942 -0.489848 0)
(-0.0265044 0.376008 0)
(-0.112905 0.87135 0)
(-0.235477 1.14223 0)
(-0.346294 1.24917 0)
(-0.429457 1.24696 0)
(-0.487028 1.17364 0)
(-0.525581 1.05229 0)
(-0.552803 0.894941 0)
(-0.576237 0.706287 0)
(-0.60246 0.486477 0)
(-0.636475 0.233267 0)
(-0.680914 -0.0561708 0)
(-0.734691 -0.383107 0)
(-0.790856 -0.743774 0)
(-0.833895 -1.12307 0)
(-0.837476 -1.48382 0)
(-0.765322 -1.7517 0)
(-0.584375 -1.80247 0)
(-0.312441 -1.47399 0)
(-0.0788527 -0.643561 0)
(-0.0400053 0.447072 0)
(-0.146908 0.99245 0)
(-0.270649 1.25494 0)
(-0.355537 1.33113 0)
(-0.392805 1.29645 0)
(-0.394157 1.19761 0)
(-0.373311 1.06033 0)
(-0.342889 0.896744 0)
(-0.314015 0.710643 0)
(-0.296226 0.500823 0)
(-0.297509 0.263215 0)
(-0.324044 -0.00779909 0)
(-0.379171 -0.318146 0)
(-0.461113 -0.67173 0)
(-0.558993 -1.06501 0)
(-0.647041 -1.47481 0)
(-0.679087 -1.83561 0)
(-0.595044 -2.00822 0)
(-0.370531 -1.76257 0)
(-0.108914 -0.838473 0)
(-0.0657138 0.549475 0)
(-0.204745 1.13013 0)
(-0.318352 1.34902 0)
(-0.35105 1.3666 0)
(-0.313274 1.28369 0)
(-0.232433 1.15325 0)
(-0.131001 1.00058 0)
(-0.0262691 0.83562 0)
(0.0680841 0.659941 0)
(0.140861 0.470617 0)
(0.182374 0.262124 0)
(0.183928 0.0270558 0)
(0.138128 -0.243755 0)
(0.0404869 -0.560797 0)
(-0.106553 -0.933114 0)
(-0.285253 -1.35808 0)
(-0.449434 -1.79475 0)
(-0.517761 -2.11273 0)
(-0.40777 -2.02682 0)
(-0.144218 -1.08075 0)
(-0.10854 0.712121 0)
(-0.286061 1.28073 0)
(-0.348946 1.39355 0)
(-0.276097 1.31801 0)
(-0.119743 1.17509 0)
(0.0729654 1.01427 0)
(0.272896 0.853928 0)
(0.461255 0.69814 0)
(0.624928 0.544551 0)
(0.753824 0.388102 0)
(0.838991 0.22235 0)
(0.871402 0.0395022 0)
(0.84147 -0.170452 0)
(0.73936 -0.421203 0)
(0.557367 -0.731262 0)
(0.297827 -1.11996 0)
(-0.00899406 -1.58555 0)
(-0.281509 -2.04308 0)
(-0.376037 -2.20046 0)
(-0.167778 -1.37369 0)
(-0.155419 0.978418 0)
(-0.340072 1.4004 0)
(-0.237089 1.30639 0)
(0.0334825 1.11472 0)
(0.35506 0.923732 0)
(0.674832 0.75429 0)
(0.96982 0.608641 0)
(1.22813 0.481885 0)
(1.44295 0.367093 0)
(1.60934 0.257493 0)
(1.72217 0.146729 0)
(1.77481 0.0282388 0)
(1.75832 -0.106057 0)
(1.66049 -0.268162 0)
(1.46543 -0.478174 0)
(1.1569 -0.768843 0)
(0.731237 -1.18061 0)
(0.228199 -1.71329 0)
(-0.173244 -2.15939 0)
(-0.1189 -1.67493 0)
(-0.0475348 1.26945 0)
(-0.0720126 1.31683 0)
(0.411489 0.96894 0)
(0.958259 0.709538 0)
(1.42958 0.529339 0)
(1.82321 0.39842 0)
(2.14932 0.301141 0)
(2.41424 0.226135 0)
(2.62275 0.164585 0)
(2.77787 0.110112 0)
(2.88009 0.0580042 0)
(2.92695 0.00428262 0)
(2.91274 -0.0552928 0)
(2.82698 -0.127352 0)
(2.65183 -0.224378 0)
(2.3584 -0.373274 0)
(1.9018 -0.630365 0)
(1.22454 -1.07917 0)
(0.452834 -1.68849 0)
(0.2175 -1.70175 0)
(1.43826 0.707198 0)
(1.8357 0.626576 0)
(2.56335 0.398277 0)
(3.13743 0.251666 0)
(3.51183 0.164255 0)
(3.76903 0.109429 0)
(3.9566 0.074002 0)
(4.09497 0.0502378 0)
(4.19511 0.0331215 0)
(4.26348 0.0195229 0)
(4.30314 0.00749276 0)
(4.31462 -0.00430679 0)
(4.29607 -0.0169544 0)
(4.2427 -0.0321729 0)
(4.14471 -0.0531785 0)
(3.98097 -0.0879809 0)
(3.70225 -0.158354 0)
(3.17419 -0.316151 0)
(2.29942 -0.622734 0)
(1.66818 -0.779837 0)
)
;

boundaryField
{
    movingWall
    {
        type            fixedValue;
        value           uniform (5.07388 0 0);
    }
    fixedWalls
    {
        type            noSlip;
    }
    frontAndBack
    {
        type            empty;
    }
}


// ************************************************************************* //
