/*--------------------------------*- C++ -*----------------------------------*\
| =========                 |                                                 |
| \\      /  F ield         | OpenFOAM: The Open Source CFD Toolbox           |
|  \\    /   O peration     | Version:  2212                                  |
|   \\  /    A nd           | Website:  www.openfoam.com                      |
|    \\/     M anipulation  |                                                 |
\*---------------------------------------------------------------------------*/
FoamFile
{
    version     2.0;
    format      ascii;
    arch        "LSB;label=32;scalar=64";
    class       volVectorField;
    location    "0.1";
    object      U;
}
// * * * * * * * * * * * * * * * * * * * * * * * * * * * * * * * * * * * * * //

dimensions      [0 1 -1 0 0 0 0];

internalField   nonuniform List<vector> 
44
(
(0.00629662 0 0)
(0.0186988 0 0)
(0.0305413 0 0)
(0.0414926 0 0)
(0.0512749 0 0)
(0.00813769 0 0)
(0.0241543 0 0)
(0.0394159 0 0)
(0.0534837 0 0)
(0.0660012 0 0)
(0.0767012 0 0)
(0.0854035 0 0)
(0.0104174 0 0)
(0.0309004 0 0)
(0.0503617 0 0)
(0.0682231 0 0)
(0.0840325 0 0)
(0.0974714 0 0)
(0.108341 0 0)
(0.0132482 0 0)
(0.0392612 0 0)
(0.0638797 0 0)
(0.0863419 0 0)
(0.106084 0 0)
(0.122741 0 0)
(0.13612 0 0)
(0.0167779 0 0)
(0.0496571 0 0)
(0.0806041 0 0)
(0.108614 0 0)
(0.133 0 0)
(0.153376 0 0)
(0.16959 0 0)
(0.0212108 0 0)
(0.06266 0 0)
(0.101371 0 0)
(0.136021 0 0)
(0.165803 0 0)
(0.190367 0 0)
(0.209683 0 0)
(0.169843 0 0)
(0.205746 0 0)
(0.234856 0 0)
(0.2574 0 0)
)
;

boundaryField
{
    movingWall
    {
        type            fixedValue;
        value           nonuniform List<vector> 0();
    }
    fixedWalls
    {
        type            noSlip;
    }
    frontAndBack
    {
        type            empty;
    }
    procBoundary3to0
    {
        type            processor;
        value           nonuniform List<vector> 8((0.00480472 0 0) (0.0142736 0 0) (0.0233295 0 0) (0.0317245 0 0) (0.0392468 0 0) (0.0596749 0 0) (0.0596749 0 0) (0.0665353 0 0));
    }
    procBoundary3to4
    {
        type            processor;
        value           nonuniform List<vector> 6((0.0920013 0 0) (0.11654 0 0) (0.146147 0 0) (0.181648 0 0) (0.223905 0 0) (0.27379 0 0));
    }
    procBoundary3to6
    {
        type            processor;
        value           nonuniform List<vector> 7((0.0268492 0 0) (0.0790943 0 0) (0.127337 0 0) (0.127337 0 0) (0.211816 0 0) (0.254402 0 0) (0.28816 0 0));
    }
    procBoundary3to7
    {
        type            processor;
        value           uniform (0.3138 0 0);
    }
}


// ************************************************************************* //
