/*--------------------------------*- C++ -*----------------------------------*\
  =========                 |
  \\      /  F ield         | OpenFOAM: The Open Source CFD Toolbox
   \\    /   O peration     | Website:  https://openfoam.org
    \\  /    A nd           | Version:  8
     \\/     M anipulation  |
\*---------------------------------------------------------------------------*/
FoamFile
{
    version     2.0;
    format      ascii;
    class       volScalarField;
    location    "1";
    object      p;
}
// * * * * * * * * * * * * * * * * * * * * * * * * * * * * * * * * * * * * * //

dimensions      [0 2 -2 0 0 0 0];

internalField   nonuniform List<scalar> 
400
(
-0.099178
-0.198165
-0.251311
-0.276689
-0.280323
-0.268108
-0.243167
-0.206087
-0.159514
-0.106438
-0.0490934
0.0103367
0.0690853
0.12401
0.172236
0.211716
0.241455
0.26144
0.272451
0.276113
-0.198551
-0.239026
-0.268554
-0.283704
-0.282689
-0.267834
-0.241492
-0.204353
-0.158605
-0.106604
-0.0501687
0.00867897
0.0671576
0.121992
0.170114
0.209303
0.238489
0.257599
0.266996
0.266643
-0.250245
-0.268454
-0.280259
-0.284661
-0.277332
-0.259983
-0.233914
-0.198817
-0.156238
-0.107957
-0.0551213
0.000809036
0.0572483
0.110693
0.157594
0.195304
0.222639
0.239744
0.247184
0.245431
-0.273248
-0.280747
-0.280751
-0.276556
-0.263931
-0.244803
-0.220056
-0.188561
-0.151233
-0.109236
-0.0628057
-0.0124632
0.0397037
0.0900572
0.134497
0.169812
0.194567
0.209032
0.214117
0.210861
-0.278069
-0.2791
-0.271651
-0.261058
-0.244099
-0.223551
-0.200468
-0.17315
-0.142029
-0.107948
-0.0703532
-0.0285893
0.0161744
0.0605536
0.100168
0.131419
0.15264
0.16401
0.16674
0.162266
-0.270376
-0.26767
-0.255759
-0.241078
-0.221141
-0.199766
-0.178669
-0.155784
-0.131037
-0.105473
-0.0783373
-0.0478555
-0.0137881
0.0214255
0.053702
0.0793488
0.096423
0.104715
0.10568
0.100931
-0.255797
-0.251859
-0.238289
-0.222244
-0.201275
-0.179989
-0.161201
-0.142794
-0.123704
-0.105629
-0.0887558
-0.0708504
-0.0499986
-0.026817
-0.00415423
0.0147643
0.0277241
0.0337106
0.0341216
0.0303975
-0.23966
-0.236818
-0.224526
-0.210315
-0.191009
-0.171289
-0.155344
-0.141962
-0.127915
-0.115242
-0.106402
-0.100113
-0.093099
-0.083413
-0.0715628
-0.0595175
-0.0496639
-0.0443373
-0.0428784
-0.0446343
-0.224396
-0.224911
-0.216908
-0.208234
-0.194468
-0.179133
-0.167189
-0.160754
-0.152985
-0.144369
-0.140239
-0.142178
-0.146791
-0.149501
-0.147609
-0.140983
-0.131959
-0.12476
-0.120588
-0.120581
-0.208233
-0.213796
-0.212764
-0.213448
-0.210347
-0.204573
-0.198706
-0.202518
-0.205412
-0.202823
-0.201562
-0.207477
-0.219079
-0.230214
-0.234918
-0.230369
-0.218514
-0.205937
-0.197233
-0.19682
-0.185031
-0.196181
-0.20465
-0.21843
-0.231762
-0.244147
-0.24813
-0.265506
-0.285389
-0.295062
-0.299
-0.306732
-0.320429
-0.334389
-0.340488
-0.333261
-0.313809
-0.291132
-0.274799
-0.274596
-0.145619
-0.162213
-0.184316
-0.216147
-0.250985
-0.293114
-0.314477
-0.347681
-0.388636
-0.417676
-0.432843
-0.444174
-0.457435
-0.469323
-0.471692
-0.457277
-0.425495
-0.386695
-0.356169
-0.352141
-0.0811618
-0.104211
-0.148013
-0.207331
-0.266875
-0.347421
-0.39826
-0.450727
-0.511994
-0.562688
-0.594148
-0.61277
-0.625347
-0.631859
-0.626947
-0.603325
-0.556897
-0.495797
-0.439193
-0.41881
0.0131185
-0.0208207
-0.0964515
-0.197909
-0.286009
-0.398658
-0.487394
-0.567479
-0.649667
-0.721467
-0.771842
-0.799593
-0.807589
-0.801589
-0.784537
-0.752135
-0.693733
-0.607928
-0.510333
-0.452956
0.138618
0.0837464
-0.0258335
-0.174911
-0.303462
-0.426014
-0.541731
-0.658258
-0.774562
-0.878162
-0.957707
-1.00013
-0.983983
-0.941741
-0.896917
-0.852556
-0.788648
-0.685168
-0.539884
-0.425928
0.302508
0.209426
0.0780954
-0.0841811
-0.265876
-0.397426
-0.527765
-0.690019
-0.875594
-1.05245
-1.18745
-1.24072
-1.18331
-1.05205
-0.918226
-0.826697
-0.753979
-0.65216
-0.480619
-0.310198
0.52546
0.382942
0.239421
0.116818
-0.0925897
-0.292242
-0.515539
-0.783067
-1.07197
-1.33403
-1.51671
-1.57747
-1.49713
-1.2644
-0.955249
-0.669173
-0.483401
-0.390363
-0.265516
-0.0889523
0.83774
0.690468
0.543785
0.367005
0.0753694
-0.269883
-0.665388
-1.06773
-1.41649
-1.67931
-1.84541
-1.90931
-1.86044
-1.66566
-1.27473
-0.695757
-0.132214
0.200183
0.247637
0.31504
1.45504
1.25593
0.95208
0.48225
-0.106375
-0.645533
-1.08662
-1.44619
-1.73125
-1.94251
-2.0818
-2.14894
-2.13447
-2.01007
-1.72056
-1.17976
-0.311061
0.60473
1.10308
1.19971
2.1006
1.62357
0.830624
-0.00135262
-0.58501
-1.00292
-1.34211
-1.62811
-1.86119
-2.03918
-2.16192
-2.22814
-2.22932
-2.14503
-1.94224
-1.57587
-0.944991
0.126379
1.46208
2.19017
)
;

boundaryField
{
    movingWall
    {
        type            zeroGradient;
    }
    fixedWalls
    {
        type            zeroGradient;
    }
    frontAndBack
    {
        type            empty;
    }
}


// ************************************************************************* //
