/*--------------------------------*- C++ -*----------------------------------*\
  =========                 |
  \\      /  F ield         | OpenFOAM: The Open Source CFD Toolbox
   \\    /   O peration     | Website:  https://openfoam.org
    \\  /    A nd           | Version:  8
     \\/     M anipulation  |
\*---------------------------------------------------------------------------*/
FoamFile
{
    version     2.0;
    format      ascii;
    class       surfaceScalarField;
    location    "1";
    object      phi;
}
// * * * * * * * * * * * * * * * * * * * * * * * * * * * * * * * * * * * * * //

dimensions      [0 3 -1 0 0 0 0];

internalField   nonuniform List<scalar> 
760
(
6.40902e-08
-6.40622e-08
-1.33845e-07
1.97937e-07
-6.01359e-07
4.67517e-07
-1.2497e-06
6.48341e-07
-1.98611e-06
7.36408e-07
-2.72954e-06
7.43425e-07
-3.41108e-06
6.81545e-07
-3.97137e-06
5.60287e-07
-4.35872e-06
3.87348e-07
-4.53037e-06
1.71652e-07
-4.4571e-06
-7.32709e-08
-4.1302e-06
-3.26896e-07
-3.56882e-06
-5.61379e-07
-2.82513e-06
-7.43691e-07
-1.98457e-06
-8.40562e-07
-1.15886e-06
-8.25711e-07
-4.70584e-07
-6.88277e-07
-2.98232e-08
-4.40761e-07
1.02196e-07
-1.32017e-07
1.02199e-07
-1.96214e-07
1.32143e-07
-9.66026e-07
9.67757e-07
-2.25657e-06
1.75807e-06
-3.90578e-06
2.29755e-06
-5.72761e-06
2.55824e-06
-7.54335e-06
2.55916e-06
-9.19153e-06
2.32972e-06
-1.053e-05
1.89876e-06
-1.14376e-05
1.29492e-06
-1.18193e-05
5.53356e-07
-1.16163e-05
-2.7621e-07
-1.08191e-05
-1.12418e-06
-9.4794e-06
-1.90103e-06
-7.71851e-06
-2.50459e-06
-5.7242e-06
-2.83487e-06
-3.7342e-06
-2.81572e-06
-2.00249e-06
-2.41999e-06
-7.50115e-07
-1.69315e-06
-1.0326e-07
-7.78881e-07
-1.05813e-09
-5.06085e-07
6.38234e-07
-1.8922e-06
2.35387e-06
-3.9669e-06
3.83277e-06
-6.48978e-06
4.82042e-06
-9.20806e-06
5.27652e-06
-1.18796e-05
5.23074e-06
-1.42831e-05
4.73323e-06
-1.62223e-05
3.83794e-06
-1.75304e-05
2.60304e-06
-1.80786e-05
1.10154e-06
-1.77887e-05
-5.66157e-07
-1.66489e-05
-2.26391e-06
-1.47295e-05
-3.8205e-06
-1.21913e-05
-5.04277e-06
-9.284e-06
-5.74215e-06
-6.32582e-06
-5.7739e-06
-3.6625e-06
-5.08331e-06
-1.60741e-06
-3.74823e-06
-3.71307e-07
-2.01499e-06
-3.72364e-07
-7.89373e-07
1.42761e-06
-2.76825e-06
4.33275e-06
-5.58715e-06
6.65167e-06
-8.9119e-06
8.14517e-06
-1.24271e-05
8.79177e-06
-1.58431e-05
8.64668e-06
-1.88983e-05
7.78848e-06
-2.13615e-05
6.30113e-06
-2.30354e-05
4.27689e-06
-2.37654e-05
1.83157e-06
-2.3454e-05
-8.77555e-07
-2.20782e-05
-3.63976e-06
-1.97078e-05
-6.19084e-06
-1.652e-05
-8.23061e-06
-1.28015e-05
-9.46061e-06
-8.9332e-06
-9.64223e-06
-5.34863e-06
-8.66788e-06
-2.46906e-06
-6.6278e-06
-6.26164e-07
-3.85788e-06
-9.98527e-07
-1.04174e-06
2.46935e-06
-3.56959e-06
6.8606e-06
-7.08254e-06
1.01646e-05
-1.11496e-05
1.22122e-05
-1.53954e-05
1.30376e-05
-1.94917e-05
1.2743e-05
-2.31498e-05
1.14466e-05
-2.61158e-05
9.26716e-06
-2.8171e-05
6.33202e-06
-2.9138e-05
2.79861e-06
-2.88948e-05
-1.12077e-06
-2.73935e-05
-5.14102e-06
-2.4684e-05
-8.90039e-06
-2.09361e-05
-1.19785e-05
-1.64543e-05
-1.39423e-05
-1.16736e-05
-1.4423e-05
-7.12421e-06
-1.32173e-05
-3.36243e-06
-1.03896e-05
-8.76998e-07
-6.34331e-06
-1.87553e-06
-1.2667e-06
3.73605e-06
-4.29393e-06
9.88783e-06
-8.44335e-06
1.4314e-05
-1.31923e-05
1.69612e-05
-1.81106e-05
1.79559e-05
-2.28397e-05
1.74721e-05
-2.70742e-05
1.5681e-05
-3.05474e-05
1.27405e-05
-3.3026e-05
8.81058e-06
-3.4311e-05
4.08357e-06
-3.4249e-05
-1.18268e-06
-3.27528e-05
-6.63724e-06
-2.98297e-05
-1.18235e-05
-2.56166e-05
-1.61916e-05
-2.04128e-05
-1.91461e-05
-1.46962e-05
-2.01396e-05
-9.10341e-06
-1.88101e-05
-4.35829e-06
-1.51347e-05
-1.15173e-06
-9.54987e-06
-3.02726e-06
-1.46656e-06
5.20261e-06
-4.94056e-06
1.33618e-05
-9.66047e-06
1.9034e-05
-1.50203e-05
2.23211e-05
-2.05432e-05
2.34788e-05
-2.585e-05
2.27789e-05
-3.06289e-05
2.046e-05
-3.46118e-05
1.67233e-05
-3.75583e-05
1.1757e-05
-3.92507e-05
5.77599e-06
-3.95004e-05
-9.32979e-07
-3.81668e-05
-7.97082e-06
-3.51918e-05
-1.47985e-05
-3.06484e-05
-2.0735e-05
-2.47978e-05
-2.49967e-05
-1.81373e-05
-2.68001e-05
-1.14098e-05
-2.55376e-05
-5.54028e-06
-2.10042e-05
-1.4827e-06
-1.36074e-05
-4.50996e-06
-1.64199e-06
6.84461e-06
-5.50649e-06
1.72263e-05
-1.07193e-05
2.42468e-05
-1.65995e-05
2.82013e-05
-2.26328e-05
2.9512e-05
-2.84311e-05
2.85772e-05
-3.36903e-05
2.57192e-05
-3.81539e-05
2.11869e-05
-4.15868e-05
1.519e-05
-4.37614e-05
7.9505e-06
-4.4455e-05
-2.39305e-07
-4.34661e-05
-8.95973e-06
-4.06498e-05
-1.76148e-05
-3.59798e-05
-2.54051e-05
-2.96326e-05
-3.1344e-05
-2.208e-05
-3.43526e-05
-1.41494e-05
-3.34682e-05
-6.99198e-06
-2.81616e-05
-1.90395e-06
-1.86955e-05
-6.41391e-06
-1.79379e-06
8.6384e-06
-5.98969e-06
2.14222e-05
-1.16039e-05
2.98611e-05
-1.78853e-05
3.44826e-05
-2.42923e-05
3.5919e-05
-3.04429e-05
3.47278e-05
-3.60575e-05
3.13338e-05
-4.091e-05
2.60394e-05
-4.47894e-05
1.90694e-05
-4.74739e-05
1.0635e-05
-4.87194e-05
1.00616e-06
-4.82653e-05
-9.41378e-06
-4.58669e-05
-2.00132e-05
-4.13629e-05
-2.99092e-05
-3.47859e-05
-3.7921e-05
-2.65085e-05
-4.263e-05
-1.73834e-05
-4.25934e-05
-8.78776e-06
-3.67572e-05
-2.4511e-06
-2.50321e-05
-8.865e-06
-1.9272e-06
1.05656e-05
-6.3985e-06
2.58935e-05
-1.23089e-05
3.57715e-05
-1.88358e-05
4.10094e-05
-2.54219e-05
4.25051e-05
-3.17096e-05
4.10155e-05
-3.74665e-05
3.70906e-05
-4.25207e-05
3.10937e-05
-4.67109e-05
2.32595e-05
-4.98477e-05
1.37719e-05
-5.16901e-05
2.84854e-06
-5.19368e-05
-9.16708e-06
-5.02453e-05
-2.17047e-05
-4.62935e-05
-3.38609e-05
-3.99052e-05
-4.43093e-05
-3.12502e-05
-5.1285e-05
-2.10931e-05
-5.27504e-05
-1.09823e-05
-4.6868e-05
-3.16284e-06
-3.28516e-05
-1.20278e-05
-2.05924e-06
1.26248e-05
-6.76679e-06
3.06011e-05
-1.28585e-05
4.18632e-05
-1.94312e-05
4.75822e-05
-2.59272e-05
4.90011e-05
-3.20391e-05
4.71274e-05
-3.76103e-05
4.26619e-05
-4.25535e-05
3.60369e-05
-4.67883e-05
2.74943e-05
-5.01932e-05
1.71768e-05
-5.25683e-05
5.22365e-06
-5.36091e-05
-8.12627e-06
-5.29019e-05
-2.2412e-05
-4.99614e-05
-3.68014e-05
-4.43478e-05
-4.99228e-05
-3.59042e-05
-5.97286e-05
-2.51295e-05
-6.35252e-05
-1.35932e-05
-5.84044e-05
-4.08309e-06
-4.23616e-05
-1.61109e-05
-2.23022e-06
1.48551e-05
-7.17495e-06
3.55458e-05
-1.33278e-05
4.80161e-05
-1.96912e-05
5.39455e-05
-2.57338e-05
5.50437e-05
-3.12376e-05
5.26312e-05
-3.61596e-05
4.75839e-05
-4.05316e-05
4.04089e-05
-4.43893e-05
3.1352e-05
-4.77185e-05
2.05061e-05
-5.04082e-05
7.91337e-06
-5.22066e-05
-6.32789e-06
-5.26849e-05
-2.19336e-05
-5.12314e-05
-3.82549e-05
-4.7124e-05
-5.40303e-05
-3.97617e-05
-6.70908e-05
-2.91417e-05
-7.41452e-05
-1.65689e-05
-7.09772e-05
-5.26283e-06
-5.36677e-05
-2.13738e-05
-2.52241e-06
1.73775e-05
-7.77552e-06
4.07989e-05
-1.38587e-05
5.40992e-05
-1.96746e-05
5.97615e-05
-2.47759e-05
6.0145e-05
-2.90962e-05
5.69515e-05
-3.2756e-05
5.12437e-05
-3.59439e-05
4.35968e-05
-3.8844e-05
3.42521e-05
-4.15847e-05
2.32468e-05
-4.41916e-05
1.05203e-05
-4.65311e-05
-3.98838e-06
-4.82435e-05
-2.02213e-05
-4.86768e-05
-3.78217e-05
-4.68746e-05
-5.58324e-05
-4.1729e-05
-7.22364e-05
-3.24816e-05
-8.33927e-05
-1.97314e-05
-8.37273e-05
-6.75846e-06
-6.66407e-05
-2.81322e-05
-3.09005e-06
2.04675e-05
-8.81559e-06
4.65245e-05
-1.46423e-05
5.99259e-05
-1.9422e-05
6.45412e-05
-2.29126e-05
6.36356e-05
-2.53e-05
5.93389e-05
-2.6932e-05
5.28756e-05
-2.81894e-05
4.48542e-05
-2.94251e-05
3.54877e-05
-3.09292e-05
2.47509e-05
-3.2895e-05
1.24861e-05
-3.53647e-05
-1.51871e-06
-3.81432e-05
-1.74428e-05
-4.06724e-05
-3.52925e-05
-4.19017e-05
-5.46031e-05
-4.02713e-05
-7.38669e-05
-3.40831e-05
-8.95808e-05
-2.26719e-05
-9.51385e-05
-8.61426e-06
-8.06983e-05
-3.67465e-05
-4.20033e-06
2.46679e-05
-1.06212e-05
5.29453e-05
-1.57958e-05
6.51005e-05
-1.87437e-05
6.74891e-05
-1.96714e-05
6.45633e-05
-1.9165e-05
5.88326e-05
-1.78692e-05
5.15798e-05
-1.6377e-05
4.33619e-05
-1.52038e-05
3.43145e-05
-1.47877e-05
2.43349e-05
-1.5485e-05
1.31833e-05
-1.75371e-05
5.33419e-07
-2.09895e-05
-1.39904e-05
-2.55327e-05
-3.07493e-05
-3.02558e-05
-4.988e-05
-3.33845e-05
-7.07382e-05
-3.2305e-05
-9.06604e-05
-2.45559e-05
-0.000102888
-1.07881e-05
-9.44661e-05
-4.75346e-05
-6.24672e-06
3.09146e-05
-1.34053e-05
6.01039e-05
-1.6924e-05
6.86192e-05
-1.66378e-05
6.72029e-05
-1.36276e-05
6.15531e-05
-9.0514e-06
5.42563e-05
-3.88368e-06
4.64121e-05
1.10216e-06
3.83761e-05
5.2866e-06
3.01301e-05
8.14782e-06
2.14737e-05
9.22512e-06
1.2106e-05
8.11271e-06
1.64583e-06
4.50888e-06
-1.03866e-05
-1.64541e-06
-2.4595e-05
-9.86094e-06
-4.16645e-05
-1.85931e-05
-6.2006e-05
-2.47116e-05
-8.45418e-05
-2.37502e-05
-0.000103849
-1.29146e-05
-0.000105302
-6.04492e-05
-9.56149e-06
4.04761e-05
-1.64268e-05
6.69693e-05
-1.58217e-05
6.8014e-05
-9.88956e-06
6.12708e-05
-1.1257e-06
5.27893e-05
8.70438e-06
4.44262e-05
1.84206e-05
3.66959e-05
2.7226e-05
2.95707e-05
3.45435e-05
2.28125e-05
3.98985e-05
1.61188e-05
4.28407e-05
9.16384e-06
4.29019e-05
1.58462e-06
3.95941e-05
-7.07879e-06
3.24729e-05
-1.74738e-05
2.13818e-05
-3.05733e-05
7.05461e-06
-4.76789e-05
-7.76897e-06
-6.97182e-05
-1.72136e-05
-9.44043e-05
-1.37635e-05
-0.000108752
-7.42128e-05
-1.3431e-05
5.3907e-05
-1.50813e-05
6.86196e-05
-5.09744e-06
5.80302e-05
9.81184e-06
4.63615e-05
2.58435e-05
3.67576e-05
4.12136e-05
2.90562e-05
5.50418e-05
2.28676e-05
6.68644e-05
1.77482e-05
7.63926e-05
1.32843e-05
8.33753e-05
9.13614e-06
8.75179e-05
5.02121e-06
8.84284e-05
6.74158e-07
8.55812e-05
-4.23163e-06
7.82702e-05
-1.01628e-05
6.56666e-05
-1.79697e-05
4.71905e-05
-2.92027e-05
2.37956e-05
-4.63234e-05
7.1125e-07
-7.13199e-05
-1.02177e-05
-9.78229e-05
-8.44304e-05
-9.40967e-06
6.33167e-05
8.82276e-06
5.03871e-05
3.51836e-05
3.16693e-05
6.00403e-05
2.15048e-05
8.14891e-05
1.53088e-05
9.94592e-05
1.10862e-05
0.000114209
8.11762e-06
0.000126023
5.93463e-06
0.000135105
4.20245e-06
0.000141539
2.70167e-06
0.000145275
1.28494e-06
0.000146107
-1.57121e-07
0.000143642
-1.76691e-06
0.000137179
-3.70053e-06
0.000125548
-6.33853e-06
0.000106898
-1.05529e-05
7.90802e-05
-1.85052e-05
4.22948e-05
-3.45345e-05
6.89813e-06
-6.24263e-05
-7.75323e-05
6.33167e-05
0.000113704
0.000145373
0.000166878
0.000182187
0.000193273
0.000201391
0.000207325
0.000211528
0.000214229
0.000215514
0.000215357
0.00021359
0.00020989
0.000203551
0.000192998
0.000174493
0.000139959
7.75323e-05
)
;

boundaryField
{
    movingWall
    {
        type            calculated;
        value           uniform 0;
    }
    fixedWalls
    {
        type            calculated;
        value           uniform 0;
    }
    frontAndBack
    {
        type            empty;
        value           nonuniform List<scalar> 0();
    }
}


// ************************************************************************* //
