/*--------------------------------*- C++ -*----------------------------------*\
  =========                 |
  \\      /  F ield         | OpenFOAM: The Open Source CFD Toolbox
   \\    /   O peration     | Website:  https://openfoam.org
    \\  /    A nd           | Version:  8
     \\/     M anipulation  |
\*---------------------------------------------------------------------------*/
FoamFile
{
    version     2.0;
    format      ascii;
    class       volVectorField;
    location    "1";
    object      U;
}
// * * * * * * * * * * * * * * * * * * * * * * * * * * * * * * * * * * * * * //

dimensions      [0 1 -1 0 0 0 0];

internalField   nonuniform List<vector> 
400
(
(0.00120501 -0.00120754 0)
(0.00040269 0.000673717 0)
(-0.00645277 0.00286863 0)
(-0.017974 0.00434206 0)
(-0.0321846 0.00507102 0)
(-0.0473121 0.00518728 0)
(-0.061851 0.00480772 0)
(-0.0745188 0.00400893 0)
(-0.0842016 0.00283859 0)
(-0.0899413 0.00134627 0)
(-0.0909952 -0.000383531 0)
(-0.0869575 -0.00220785 0)
(-0.077911 -0.00391791 0)
(-0.0645621 -0.00525485 0)
(-0.0483045 -0.00594839 0)
(-0.0311591 -0.00577554 0)
(-0.0155509 -0.00463045 0)
(-0.0039099 -0.00259516 0)
(0.00189298 -8.65315e-05 0)
(0.00157782 0.00152504 0)
(-0.00062299 -0.000511202 0)
(-0.00896598 0.00884343 0)
(-0.0300656 0.0184096 0)
(-0.0604042 0.0249935 0)
(-0.0960112 0.0282478 0)
(-0.133211 0.0284785 0)
(-0.168591 0.0260824 0)
(-0.199098 0.0214055 0)
(-0.222078 0.0147562 0)
(-0.235333 0.00650222 0)
(-0.237273 -0.00281705 0)
(-0.227158 -0.0124135 0)
(-0.205366 -0.0212425 0)
(-0.173621 -0.0280871 0)
(-0.135057 -0.0317394 0)
(-0.0940482 -0.0312651 0)
(-0.0556855 -0.0263138 0)
(-0.024927 -0.017418 0)
(-0.00570087 -0.00641649 0)
(0.000312877 0.00208405 0)
(-0.00307635 0.00650025 0)
(-0.0201119 0.0303419 0)
(-0.0555962 0.0520926 0)
(-0.103023 0.0669227 0)
(-0.156708 0.0740192 0)
(-0.211765 0.0738105 0)
(-0.263566 0.067056 0)
(-0.3079 0.0545504 0)
(-0.341103 0.0371238 0)
(-0.360168 0.0158106 0)
(-0.362957 -0.00794697 0)
(-0.348502 -0.0321642 0)
(-0.317333 -0.0543236 0)
(-0.271744 -0.0715758 0)
(-0.215896 -0.08115 0)
(-0.155614 -0.0809477 0)
(-0.0977379 -0.070237 0)
(-0.0490585 -0.0502942 0)
(-0.0155831 -0.0250377 0)
(-0.0016719 -0.002605 0)
(-0.00527381 0.0195572 0)
(-0.0305788 0.0642565 0)
(-0.0799023 0.101458 0)
(-0.143298 0.125992 0)
(-0.213279 0.13706 0)
(-0.283984 0.135415 0)
(-0.349952 0.122291 0)
(-0.406222 0.0990412 0)
(-0.448469 0.0671532 0)
(-0.473122 0.0285035 0)
(-0.477588 -0.0143445 0)
(-0.460577 -0.0579443 0)
(-0.422488 -0.0979851 0)
(-0.365751 -0.129607 0)
(-0.295037 -0.148052 0)
(-0.217162 -0.149633 0)
(-0.140458 -0.132889 0)
(-0.0736404 -0.0996336 0)
(-0.0253462 -0.0557698 0)
(-0.00346158 -0.0125748 0)
(-0.0071755 0.0379816 0)
(-0.0400346 0.109568 0)
(-0.102279 0.165089 0)
(-0.180539 0.200264 0)
(-0.265518 0.215038 0)
(-0.350507 0.210869 0)
(-0.429443 0.189662 0)
(-0.496888 0.153421 0)
(-0.54809 0.104343 0)
(-0.579041 0.0451768 0)
(-0.586674 -0.0203558 0)
(-0.569194 -0.0872786 0)
(-0.526519 -0.149342 0)
(-0.460759 -0.199401 0)
(-0.376634 -0.230269 0)
(-0.281636 -0.236076 0)
(-0.18557 -0.213962 0)
(-0.0994429 -0.165699 0)
(-0.0352423 -0.0987942 0)
(-0.00511118 -0.0275297 0)
(-0.00883919 0.0611799 0)
(-0.0485127 0.165373 0)
(-0.122584 0.24203 0)
(-0.214495 0.288762 0)
(-0.313251 0.306999 0)
(-0.411416 0.299381 0)
(-0.502526 0.268733 0)
(-0.58088 0.217801 0)
(-0.641479 0.149475 0)
(-0.679971 0.0672948 0)
(-0.692764 -0.0239755 0)
(-0.677342 -0.117916 0)
(-0.632761 -0.206317 0)
(-0.560307 -0.27951 0)
(-0.464227 -0.327349 0)
(-0.352302 -0.34093 0)
(-0.235758 -0.314958 0)
(-0.128318 -0.250197 0)
(-0.0462193 -0.155239 0)
(-0.00687478 -0.0476368 0)
(-0.010305 0.0886281 0)
(-0.0560574 0.230664 0)
(-0.140731 0.331098 0)
(-0.244879 0.390268 0)
(-0.355979 0.411824 0)
(-0.466035 0.400095 0)
(-0.568392 0.359102 0)
(-0.657311 0.292421 0)
(-0.727748 0.203559 0)
(-0.775122 0.0966563 0)
(-0.795316 -0.0227448 0)
(-0.784917 -0.147038 0)
(-0.741754 -0.266185 0)
(-0.66573 -0.367864 0)
(-0.559941 -0.438399 0)
(-0.431838 -0.464773 0)
(-0.293755 -0.437766 0)
(-0.162427 -0.355638 0)
(-0.0594318 -0.227196 0)
(-0.00905046 -0.0736842 0)
(-0.0115925 0.11983 0)
(-0.0626775 0.30435 0)
(-0.156585 0.430863 0)
(-0.271235 0.503199 0)
(-0.392776 0.527953 0)
(-0.512859 0.511683 0)
(-0.62489 0.459918 0)
(-0.723378 0.377137 0)
(-0.803498 0.26735 0)
(-0.860662 0.135011 0)
(-0.890338 -0.0139627 0)
(-0.888173 -0.171227 0)
(-0.850483 -0.32528 0)
(-0.775224 -0.461217 0)
(-0.663495 -0.561376 0)
(-0.521424 -0.60741 0)
(-0.361655 -0.584195 0)
(-0.203843 -0.48519 0)
(-0.0761087 -0.317793 0)
(-0.0119666 -0.107137 0)
(-0.0127222 0.154297 0)
(-0.0684009 0.385265 0)
(-0.170027 0.53964 0)
(-0.293025 0.625489 0)
(-0.422387 0.653143 0)
(-0.549658 0.63199 0)
(-0.668634 0.569409 0)
(-0.774435 0.470881 0)
(-0.862835 0.340781 0)
(-0.929597 0.183531 0)
(-0.970075 0.00489814 0)
(-0.979141 -0.186685 0)
(-0.95152 -0.378906 0)
(-0.882757 -0.554719 0)
(-0.771002 -0.692343 0)
(-0.619656 -0.766975 0)
(-0.440153 -0.755178 0)
(-0.254212 -0.642232 0)
(-0.0975111 -0.431102 0)
(-0.0160057 -0.150165 0)
(-0.0137618 0.191579 0)
(-0.073418 0.472221 0)
(-0.181183 0.655454 0)
(-0.309887 0.754425 0)
(-0.443488 0.784153 0)
(-0.573748 0.757573 0)
(-0.695272 0.684322 0)
(-0.804264 0.571012 0)
(-0.897592 0.422262 0)
(-0.971895 0.2421 0)
(-1.02294 0.0355492 0)
(-1.04529 -0.189694 0)
(-1.03232 -0.421496 0)
(-0.976992 -0.641618 0)
(-0.873643 -0.824658 0)
(-0.721223 -0.938708 0)
(-0.527561 -0.949478 0)
(-0.314318 -0.829431 0)
(-0.124919 -0.571824 0)
(-0.0216556 -0.20569 0)
(-0.0149068 0.231422 0)
(-0.0783206 0.564197 0)
(-0.190776 0.776081 0)
(-0.322017 0.886491 0)
(-0.455066 0.916423 0)
(-0.582358 0.883253 0)
(-0.699883 0.799365 0)
(-0.805511 0.672668 0)
(-0.897818 0.507938 0)
(-0.974983 0.308497 0)
(-1.03393 0.0780322 0)
(-1.06968 -0.17741 0)
(-1.07499 -0.447159 0)
(-1.04055 -0.713339 0)
(-0.95643 -0.948354 0)
(-0.815403 -1.1136 0)
(-0.618481 -1.16191 0)
(-0.383384 -1.04726 0)
(-0.159584 -0.744694 0)
(-0.0295906 -0.277476 0)
(-0.0166166 0.274103 0)
(-0.08446 0.660707 0)
(-0.20058 0.899164 0)
(-0.330572 1.01721 0)
(-0.456722 1.04374 0)
(-0.572905 1.00169 0)
(-0.677297 0.906733 0)
(-0.77016 0.768225 0)
(-0.852452 0.591057 0)
(-0.924616 0.377612 0)
(-0.985594 0.129772 0)
(-1.03193 -0.148932 0)
(-1.05691 -0.450715 0)
(-1.05003 -0.76017 0)
(-0.997448 -1.05007 0)
(-0.884593 -1.27723 0)
(-0.702117 -1.38121 0)
(-0.457943 -1.29175 0)
(-0.202547 -0.953405 0)
(-0.0407827 -0.370281 0)
(-0.019855 0.321074 0)
(-0.0944646 0.762377 0)
(-0.213864 1.02227 0)
(-0.337819 1.14083 0)
(-0.448529 1.15778 0)
(-0.5427 1.10297 0)
(-0.621869 0.995746 0)
(-0.689543 0.846993 0)
(-0.749725 0.661623 0)
(-0.805759 0.440949 0)
(-0.859399 0.184786 0)
(-0.909821 -0.10645 0)
(-0.95238 -0.42914 0)
(-0.977173 -0.772693 0)
(-0.96803 -1.11388 0)
(-0.903268 -1.40925 0)
(-0.760323 -1.5878 0)
(-0.530056 -1.55138 0)
(-0.25413 -1.19865 0)
(-0.0566218 -0.490048 0)
(-0.0265083 0.37611 0)
(-0.112922 0.871585 0)
(-0.235514 1.14255 0)
(-0.34635 1.24953 0)
(-0.429529 1.24733 0)
(-0.487113 1.17402 0)
(-0.525678 1.05265 0)
(-0.552911 0.895282 0)
(-0.576357 0.706593 0)
(-0.602595 0.486732 0)
(-0.636629 0.233452 0)
(-0.681093 -0.0560778 0)
(-0.7349 -0.383131 0)
(-0.791101 -0.74394 0)
(-0.834176 -1.1234 0)
(-0.837784 -1.48432 0)
(-0.765628 -1.75236 0)
(-0.584628 -1.80319 0)
(-0.312587 -1.47461 0)
(-0.0788918 -0.643835 0)
(-0.0400122 0.447184 0)
(-0.146932 0.992704 0)
(-0.270694 1.25527 0)
(-0.355595 1.33149 0)
(-0.392869 1.29683 0)
(-0.394221 1.19799 0)
(-0.373371 1.06069 0)
(-0.342941 0.897089 0)
(-0.31406 0.710954 0)
(-0.296267 0.501087 0)
(-0.297551 0.263415 0)
(-0.324094 -0.00768294 0)
(-0.37924 -0.318137 0)
(-0.461216 -0.671856 0)
(-0.559141 -1.06529 0)
(-0.647242 -1.47528 0)
(-0.679328 -1.83628 0)
(-0.595282 -2.00902 0)
(-0.370698 -1.76331 0)
(-0.108967 -0.838839 0)
(-0.0657279 0.549606 0)
(-0.204787 1.13041 0)
(-0.318418 1.34937 0)
(-0.351122 1.36698 0)
(-0.313337 1.28407 0)
(-0.232477 1.15362 0)
(-0.131018 1.00093 0)
(-0.0262561 0.835947 0)
(0.0681286 0.660236 0)
(0.140934 0.470869 0)
(0.182471 0.262319 0)
(0.184038 0.027178 0)
(0.138236 -0.243725 0)
(0.0405728 -0.560883 0)
(-0.106513 -0.933344 0)
(-0.285284 -1.35849 0)
(-0.449548 -1.79537 0)
(-0.517935 -2.11353 0)
(-0.407936 -2.02766 0)
(-0.144284 -1.08123 0)
(-0.108569 0.71229 0)
(-0.286137 1.28105 0)
(-0.349045 1.39391 0)
(-0.276185 1.31837 0)
(-0.119797 1.17545 0)
(0.0729595 1.0146 0)
(0.272947 0.854237 0)
(0.461366 0.698422 0)
(0.625099 0.544802 0)
(0.754051 0.388314 0)
(0.839267 0.222515 0)
(0.871712 0.0396089 0)
(0.841798 -0.170417 0)
(0.739681 -0.421257 0)
(0.557649 -0.731429 0)
(0.29803 -1.12028 0)
(-0.00890554 -1.58606 0)
(-0.281549 -2.04382 0)
(-0.376159 -2.20133 0)
(-0.167843 -1.37428 0)
(-0.155471 0.978664 0)
(-0.340191 1.40076 0)
(-0.237203 1.30674 0)
(0.0334262 1.11504 0)
(0.355084 0.924023 0)
(0.674945 0.754551 0)
(0.970026 0.608874 0)
(1.22843 0.482091 0)
(1.44333 0.36727 0)
(1.6098 0.257639 0)
(1.7227 0.14684 0)
(1.77539 0.0283098 0)
(1.75893 -0.106034 0)
(1.6611 -0.268197 0)
(1.46601 -0.47828 0)
(1.1574 -0.769047 0)
(0.731608 -1.18097 0)
(0.228384 -1.71387 0)
(-0.173246 -2.1602 0)
(-0.118924 -1.67561 0)
(-0.0475832 1.26981 0)
(-0.0720949 1.3172 0)
(0.411526 0.969218 0)
(0.958441 0.709757 0)
(1.4299 0.529519 0)
(1.82366 0.39857 0)
(2.14988 0.301265 0)
(2.4149 0.226239 0)
(2.6235 0.164671 0)
(2.77871 0.110179 0)
(2.88099 0.0580522 0)
(2.9279 0.0043092 0)
(2.91372 -0.0552898 0)
(2.82796 -0.127376 0)
(2.65277 -0.224434 0)
(2.35927 -0.373373 0)
(1.90255 -0.630541 0)
(1.22508 -1.07951 0)
(0.453086 -1.68908 0)
(0.217628 -1.70238 0)
(1.43871 0.707421 0)
(1.83625 0.626775 0)
(2.5641 0.398411 0)
(3.13837 0.251758 0)
(3.51289 0.164321 0)
(3.77019 0.109477 0)
(3.95783 0.0740379 0)
(4.09626 0.0502647 0)
(4.19646 0.0331415 0)
(4.26486 0.0195369 0)
(4.30456 0.00750118 0)
(4.31606 -0.00430444 0)
(4.2975 -0.0169578 0)
(4.24412 -0.0321828 0)
(4.14611 -0.0531956 0)
(3.98232 -0.0880067 0)
(3.70352 -0.158395 0)
(3.17531 -0.316235 0)
(2.30025 -0.622924 0)
(1.66878 -0.780101 0)
)
;

boundaryField
{
    movingWall
    {
        type            fixedValue;
        value           uniform (5.07558 0 0);
    }
    fixedWalls
    {
        type            noSlip;
    }
    frontAndBack
    {
        type            empty;
    }
}


// ************************************************************************* //
