/*--------------------------------*- C++ -*----------------------------------*\
  =========                 |
  \\      /  F ield         | OpenFOAM: The Open Source CFD Toolbox
   \\    /   O peration     | Website:  https://openfoam.org
    \\  /    A nd           | Version:  9
     \\/     M anipulation  |
\*---------------------------------------------------------------------------*/
FoamFile
{
    format      ascii;
    class       surfaceScalarField;
    location    "0.07";
    object      phi;
}
// * * * * * * * * * * * * * * * * * * * * * * * * * * * * * * * * * * * * * //

dimensions      [0 3 -1 0 0 0 0];

internalField   nonuniform List<scalar> 
67
(
-1.98236e-05
6.0087e-05
-2.12803e-05
5.61265e-05
-2.1334e-05
4.99541e-05
-2.0583e-05
4.27265e-05
3.49331e-05
-1.73387e-05
6.04254e-05
-1.51994e-05
5.39872e-05
-1.16595e-05
4.64141e-05
-7.60056e-06
3.86676e-05
-3.70141e-06
3.10339e-05
-4.74029e-07
2.34996e-05
1.58902e-05
-9.88258e-06
5.5375e-05
-2.42335e-06
4.65279e-05
5.82777e-06
3.8163e-05
1.38286e-05
3.06668e-05
2.09083e-05
2.39543e-05
2.66164e-05
1.77915e-05
1.19072e-05
9.75277e-06
4.19217e-05
2.38671e-05
3.24136e-05
3.70779e-05
2.49522e-05
4.86571e-05
1.90875e-05
5.82658e-05
1.43456e-05
6.57323e-05
1.0325e-05
6.71575e-06
5.67249e-05
1.94005e-05
7.56947e-05
1.34437e-05
9.11879e-05
9.4591e-06
0.000103557
6.7187e-06
0.000113157
4.74577e-06
0.000120258
3.22328e-06
1.95288e-06
0.000153102
0.000166546
0.000176005
0.000182724
0.000187469
0.000190693
)
;

boundaryField
{
    movingWall
    {
        type            calculated;
        value           uniform 0;
    }
    fixedWalls
    {
        type            calculated;
        value           nonuniform List<scalar> 0();
    }
    frontAndBack
    {
        type            empty;
        value           nonuniform List<scalar> 0();
    }
    procBoundary4to1
    {
        type            processor;
        value           nonuniform List<scalar> 6(1.64239e-05 1.70004e-05 1.49329e-05 3.70059e-06 -3.42037e-05 -0.000133701);
    }
    procBoundary4to3
    {
        type            processor;
        value           nonuniform List<scalar> 8(-5.66873e-05 -5.46698e-05 -4.99003e-05 -4.34776e-05 -3.59667e-05 -1.95493e-05 -2.6727e-05 -1.80331e-05);
    }
    procBoundary4to6
    {
        type            processor;
        value           nonuniform List<scalar> 5(1.66884e-06 3.05994e-05 7.09238e-05 0.000125021 0.000192645);
    }
}


// ************************************************************************* //
