/*--------------------------------*- C++ -*----------------------------------*\
  =========                 |
  \\      /  F ield         | OpenFOAM: The Open Source CFD Toolbox
   \\    /   O peration     | Website:  https://openfoam.org
    \\  /    A nd           | Version:  9
     \\/     M anipulation  |
\*---------------------------------------------------------------------------*/
FoamFile
{
    format      ascii;
    class       volScalarField;
    location    "0.05";
    object      p;
}
// * * * * * * * * * * * * * * * * * * * * * * * * * * * * * * * * * * * * * //

dimensions      [0 2 -2 0 0 0 0];

internalField   nonuniform List<scalar> 
40
(
-0.754361
-0.752559
-0.751439
-0.751421
-0.752436
-0.753708
-0.76064
-0.75804
-0.756315
-0.756129
-0.757196
-0.759321
-0.77694
-0.772817
-0.769787
-0.768562
-0.768877
-0.770666
-0.801851
-0.79538
-0.790267
-0.787374
-0.78644
-0.787591
-0.835011
-0.825429
-0.817376
-0.812208
-0.809614
-0.810037
-0.875804
-0.861287
-0.850802
-0.8431
-0.838495
-0.83858
-0.890393
-0.879686
-0.873669
-0.873915
)
;

boundaryField
{
    movingWall
    {
        type            zeroGradient;
    }
    fixedWalls
    {
        type            zeroGradient;
    }
    frontAndBack
    {
        type            empty;
    }
    procBoundary7to5
    {
        type            processor;
        value           nonuniform List<scalar> 6(-0.766628 -0.774443 -0.791127 -0.815849 -0.848133 -0.887507);
    }
    procBoundary7to8
    {
        type            processor;
        value           nonuniform List<scalar> 7(-0.916231 -0.900844 -0.900844 -0.94033 -0.930996 -0.926285 -0.926019);
    }
}


// ************************************************************************* //
