/*--------------------------------*- C++ -*----------------------------------*\
  =========                 |
  \\      /  F ield         | OpenFOAM: The Open Source CFD Toolbox
   \\    /   O peration     | Website:  https://openfoam.org
    \\  /    A nd           | Version:  9
     \\/     M anipulation  |
\*---------------------------------------------------------------------------*/
FoamFile
{
    format      ascii;
    class       volVectorField;
    location    "0.04";
    object      U;
}
// * * * * * * * * * * * * * * * * * * * * * * * * * * * * * * * * * * * * * //

dimensions      [0 1 -1 0 0 0 0];

internalField   nonuniform List<vector> 
40
(
(0.000514392 -0.000762255 0)
(-0.000400287 -0.000402761 0)
(-0.00403448 0.000408023 0)
(-0.0104474 0.00181372 0)
(-0.0188294 0.00280279 0)
(-0.00200084 0.000942325 0)
(-0.0095786 0.00626697 0)
(-0.0247694 0.0104834 0)
(-0.0443843 0.0148069 0)
(-0.0665583 0.0174463 0)
(-0.00424225 0.00894244 0)
(-0.0191115 0.0238027 0)
(-0.0458273 0.0339799 0)
(-0.0780455 0.0420136 0)
(-0.112216 0.0461901 0)
(-0.00496707 0.0207954 0)
(-0.0248462 0.0504252 0)
(-0.0609263 0.0689569 0)
(-0.104035 0.081029 0)
(-0.148844 0.0859941 0)
(-0.00527096 0.0350366 0)
(-0.0288851 0.0837497 0)
(-0.0726201 0.113227 0)
(-0.125104 0.129953 0)
(-0.179362 0.13529 0)
(-0.00564745 0.0509327 0)
(-0.0326008 0.122454 0)
(-0.0831074 0.165336 0)
(-0.143979 0.187628 0)
(-0.206865 0.19327 0)
(-0.00622783 0.0686394 0)
(-0.0366416 0.166305 0)
(-0.0938111 0.22471 0)
(-0.16278 0.253464 0)
(-0.234064 0.259434 0)
(-0.00709599 0.0885268 0)
(-0.041646 0.215594 0)
(-0.106268 0.291486 0)
(-0.18393 0.327364 0)
(-0.264054 0.333755 0)
)
;

boundaryField
{
    movingWall
    {
        type            fixedValue;
        value           nonuniform List<vector> 0();
    }
    fixedWalls
    {
        type            noSlip;
    }
    frontAndBack
    {
        type            empty;
    }
    procBoundary0to1
    {
        type            processor;
        value           nonuniform List<vector> 5((-0.00763823 0.101272 0) (-0.0439933 0.247017 0) (-0.111174 0.332897 0) (-0.191063 0.371572 0) (-0.272777 0.376394 0));
    }
    procBoundary0to2
    {
        type            processor;
        value           nonuniform List<vector> 8((-0.02555 0.00289857 0) (-0.0814364 0.0163297 0) (-0.133029 0.0416977 0) (-0.174821 0.0759428 0) (-0.209996 0.117859 0) (-0.241929 0.166965 0) (-0.273744 0.223033 0) (-0.308997 0.285956 0));
    }
}


// ************************************************************************* //
