/*--------------------------------*- C++ -*----------------------------------*\
  =========                 |
  \\      /  F ield         | OpenFOAM: The Open Source CFD Toolbox
   \\    /   O peration     | Website:  https://openfoam.org
    \\  /    A nd           | Version:  9
     \\/     M anipulation  |
\*---------------------------------------------------------------------------*/
FoamFile
{
    format      ascii;
    class       volScalarField;
    location    "0.02";
    object      p;
}
// * * * * * * * * * * * * * * * * * * * * * * * * * * * * * * * * * * * * * //

dimensions      [0 2 -2 0 0 0 0];

internalField   nonuniform List<scalar> 
40
(
-0.11633
-0.131202
-0.142126
-0.149031
-0.148646
-0.126406
-0.142988
-0.154795
-0.164107
-0.167742
-0.1196
-0.130186
-0.144328
-0.159528
-0.173233
-0.18605
-0.189741
-0.135175
-0.154481
-0.170319
-0.184192
-0.19899
-0.214368
-0.217494
-0.153586
-0.177105
-0.197822
-0.21346
-0.229677
-0.246792
-0.25113
-0.165801
-0.191884
-0.215559
-0.238075
-0.260476
-0.282981
-0.288843
-0.321846
-0.333343
)
;

boundaryField
{
    movingWall
    {
        type            zeroGradient;
    }
    fixedWalls
    {
        type            zeroGradient;
    }
    frontAndBack
    {
        type            empty;
    }
    procBoundary3to1
    {
        type            processor;
        value           nonuniform List<scalar> 8(-0.109567 -0.110822 -0.114498 -0.114498 -0.112915 -0.12464 -0.134755 -0.136902);
    }
    procBoundary3to2
    {
        type            processor;
        value           nonuniform List<scalar> 5(-0.115055 -0.126125 -0.133722 -0.137393 -0.134651);
    }
    procBoundary3to4
    {
        type            processor;
        value           nonuniform List<scalar> 8(-0.179089 -0.225513 -0.258169 -0.281883 -0.302364 -0.302364 -0.382349 -0.390119);
    }
    procBoundary3to5
    {
        type            processor;
        value           nonuniform List<scalar> 2(-0.146545 -0.167641);
    }
    procBoundary3to6
    {
        type            processor;
        value           nonuniform List<scalar> 5(-0.190857 -0.216565 -0.250368 -0.289613 -0.335541);
    }
}


// ************************************************************************* //
