/*--------------------------------*- C++ -*----------------------------------*\
| =========                 |                                                 |
| \\      /  F ield         | OpenFOAM: The Open Source CFD Toolbox           |
|  \\    /   O peration     | Version:  2212                                  |
|   \\  /    A nd           | Website:  www.openfoam.com                      |
|    \\/     M anipulation  |                                                 |
\*---------------------------------------------------------------------------*/
FoamFile
{
    version     2.0;
    format      ascii;
    arch        "LSB;label=32;scalar=64";
    class       volVectorField;
    location    "0.4";
    object      U;
}
// * * * * * * * * * * * * * * * * * * * * * * * * * * * * * * * * * * * * * //

dimensions      [0 1 -1 0 0 0 0];

internalField   nonuniform List<vector> 
45
(
(0.3584 0 0)
(0.380468 0 0)
(0.394784 0 0)
(0.420353 0 0)
(0.443497 0 0)
(0.458319 0 0)
(0.465546 0 0)
(0.465546 0 0)
(0.458316 0 0)
(0.443492 0 0)
(0.491714 0 0)
(0.514859 0 0)
(0.529458 0 0)
(0.536515 0 0)
(0.536515 0 0)
(0.529456 0 0)
(0.514855 0 0)
(0.573212 0 0)
(0.594776 0 0)
(0.60815 0 0)
(0.614553 0 0)
(0.614553 0 0)
(0.608148 0 0)
(0.594773 0 0)
(0.664958 0 0)
(0.682891 0 0)
(0.69382 0 0)
(0.699003 0 0)
(0.699003 0 0)
(0.693819 0 0)
(0.682889 0 0)
(0.765968 0 0)
(0.778015 0 0)
(0.785243 0 0)
(0.788643 0 0)
(0.788643 0 0)
(0.785243 0 0)
(0.778014 0 0)
(0.873688 0 0)
(0.877961 0 0)
(0.880499 0 0)
(0.881687 0 0)
(0.881687 0 0)
(0.880499 0 0)
(0.877961 0 0)
)
;

boundaryField
{
    movingWall
    {
        type            fixedValue;
        value           uniform (0.928803 0 0);
    }
    fixedWalls
    {
        type            noSlip;
    }
    frontAndBack
    {
        type            empty;
    }
    procBoundary7to3
    {
        type            processor;
        value           uniform (0.304859 0 0);
    }
    procBoundary7to4
    {
        type            processor;
        value           nonuniform List<vector> 7((0.325209 0 0) (0.338555 0 0) (0.401822 0 0) (0.401822 0 0) (0.401823 0 0) (0.394786 0 0) (0.380467 0 0));
    }
    procBoundary7to6
    {
        type            processor;
        value           nonuniform List<vector> 7((0.32794 0 0) (0.387816 0 0) (0.458444 0 0) (0.541408 0 0) (0.637768 0 0) (0.747214 0 0) (0.866907 0 0));
    }
    procBoundary7to8
    {
        type            processor;
        value           nonuniform List<vector> 6((0.420352 0 0) (0.491713 0 0) (0.573211 0 0) (0.664957 0 0) (0.765967 0 0) (0.873688 0 0));
    }
}


// ************************************************************************* //
