/*--------------------------------*- C++ -*----------------------------------*\
  =========                 |
  \\      /  F ield         | OpenFOAM: The Open Source CFD Toolbox
   \\    /   O peration     | Website:  https://openfoam.org
    \\  /    A nd           | Version:  9
     \\/     M anipulation  |
\*---------------------------------------------------------------------------*/
FoamFile
{
    format      ascii;
    class       surfaceScalarField;
    location    "0.06";
    object      phi;
}
// * * * * * * * * * * * * * * * * * * * * * * * * * * * * * * * * * * * * * //

dimensions      [0 3 -1 0 0 0 0];

internalField   nonuniform List<scalar> 
66
(
-4.42071e-05
3.48333e-06
-4.45085e-05
-6.60581e-06
-4.34502e-05
-1.73953e-05
-2.84172e-05
-4.42704e-05
5.07475e-06
-4.50473e-05
-5.8289e-06
-4.47257e-05
-1.77169e-05
-3.02599e-05
-4.11733e-05
6.64589e-06
-4.23647e-05
-4.63746e-06
-4.29222e-05
-1.71594e-05
-3.08012e-05
-3.3612e-05
7.85842e-06
-3.50364e-05
-3.21299e-06
-3.65112e-05
-1.56846e-05
-2.97043e-05
-2.01449e-05
8.3046e-06
-2.15076e-05
-1.85031e-06
-2.37911e-05
-1.34011e-05
-2.67914e-05
8.23326e-07
7.63467e-06
-1.73685e-07
-8.53297e-07
-3.01794e-06
-1.05569e-05
-2.21211e-05
3.10523e-05
5.76725e-06
3.06059e-05
-4.06938e-07
2.75029e-05
-7.45385e-06
-1.60607e-05
7.25245e-05
3.12588e-06
7.25123e-05
-3.94721e-07
6.94311e-05
-4.37264e-06
-9.33608e-06
0.000126993
7.66871e-07
0.000126981
-3.8231e-07
0.000124254
-1.64636e-06
-3.25399e-06
0.000193914
0.000193532
0.000191886
)
;

boundaryField
{
    movingWall
    {
        type            calculated;
        value           uniform 0;
    }
    fixedWalls
    {
        type            calculated;
        value           nonuniform List<scalar> 0();
    }
    frontAndBack
    {
        type            empty;
        value           nonuniform List<scalar> 0();
    }
    procBoundary6to3
    {
        type            processor;
        value           nonuniform List<scalar> 5(4.28151e-05 4.2679e-05 3.96021e-05 3.23995e-05 1.96987e-05);
    }
    procBoundary6to4
    {
        type            processor;
        value           nonuniform List<scalar> 5(-1.53385e-07 -2.91849e-05 -6.98832e-05 -0.000124634 -0.000193148);
    }
    procBoundary6to5
    {
        type            processor;
        value           nonuniform List<scalar> 4(-2.09129e-06 6.90721e-06 1.6337e-05 2.56706e-05);
    }
    procBoundary6to8
    {
        type            processor;
        value           nonuniform List<scalar> 4(-4.07036e-05 -4.28829e-05 -4.23809e-05 -3.76081e-05);
    }
    procBoundary6to9
    {
        type            processor;
        value           nonuniform List<scalar> 6(-2.6704e-05 -7.68826e-06 2.14426e-05 6.27064e-05 0.000118172 0.000188632);
    }
}


// ************************************************************************* //
