/*--------------------------------*- C++ -*----------------------------------*\
  =========                 |
  \\      /  F ield         | OpenFOAM: The Open Source CFD Toolbox
   \\    /   O peration     | Website:  https://openfoam.org
    \\  /    A nd           | Version:  8
     \\/     M anipulation  |
\*---------------------------------------------------------------------------*/
FoamFile
{
    version     2.0;
    format      ascii;
    class       volScalarField;
    location    "1";
    object      p;
}
// * * * * * * * * * * * * * * * * * * * * * * * * * * * * * * * * * * * * * //

dimensions      [0 2 -2 0 0 0 0];

internalField   nonuniform List<scalar> 
400
(
-0.0991712
-0.19815
-0.251292
-0.276668
-0.280301
-0.268086
-0.243147
-0.20607
-0.159501
-0.106431
-0.049092
0.0103313
0.0690729
0.12399
0.172211
0.211686
0.241422
0.261405
0.272416
0.276077
-0.198538
-0.239009
-0.268535
-0.283683
-0.282668
-0.267814
-0.241473
-0.204337
-0.158593
-0.106597
-0.0501669
0.00867407
0.0671456
0.121973
0.170089
0.209273
0.238456
0.257565
0.266962
0.26661
-0.250231
-0.268438
-0.280242
-0.284644
-0.277315
-0.259967
-0.233898
-0.198803
-0.156227
-0.107949
-0.0551185
0.000805585
0.0572379
0.110675
0.157571
0.195277
0.22261
0.239714
0.247155
0.245403
-0.273236
-0.280735
-0.280739
-0.276545
-0.26392
-0.244792
-0.220045
-0.18855
-0.151223
-0.109228
-0.0628016
-0.0124645
0.0396959
0.0900432
0.134478
0.169789
0.194544
0.20901
0.214096
0.210843
-0.278063
-0.279094
-0.271647
-0.261055
-0.244096
-0.223548
-0.200463
-0.173143
-0.142022
-0.107941
-0.0703479
-0.0285879
0.0161705
0.0605444
0.100155
0.131405
0.152627
0.163999
0.166733
0.162262
-0.270376
-0.267671
-0.255762
-0.241082
-0.221146
-0.19977
-0.178671
-0.155782
-0.131032
-0.105466
-0.0783302
-0.0478503
-0.0137862
0.021424
0.0536988
0.0793462
0.0964235
0.10472
0.105691
0.100946
-0.255804
-0.251868
-0.238299
-0.222255
-0.201286
-0.179998
-0.161207
-0.142795
-0.1237
-0.105621
-0.0887452
-0.0708392
-0.049988
-0.0268069
-0.00414328
0.0147783
0.0277435
0.0337368
0.0341546
0.0304351
-0.239675
-0.236833
-0.224541
-0.21033
-0.191023
-0.1713
-0.15535
-0.141961
-0.127908
-0.115229
-0.106385
-0.100092
-0.0930752
-0.0833862
-0.071532
-0.0594811
-0.0496203
-0.0442855
-0.0428188
-0.0445697
-0.224419
-0.224932
-0.216926
-0.20825
-0.19448
-0.17914
-0.16719
-0.160746
-0.152969
-0.144345
-0.140209
-0.142141
-0.146748
-0.14945
-0.147551
-0.140917
-0.131885
-0.124677
-0.120498
-0.120486
-0.208265
-0.213824
-0.212785
-0.213462
-0.210352
-0.204569
-0.198693
-0.202494
-0.205377
-0.202779
-0.201509
-0.207414
-0.219005
-0.230129
-0.234821
-0.230263
-0.218401
-0.205819
-0.197109
-0.196689
-0.185076
-0.196219
-0.204677
-0.218443
-0.231759
-0.244128
-0.248097
-0.265457
-0.285324
-0.294985
-0.29891
-0.306629
-0.320311
-0.334255
-0.340339
-0.333102
-0.313646
-0.290969
-0.274635
-0.274427
-0.145685
-0.162269
-0.184354
-0.216162
-0.250975
-0.293077
-0.314418
-0.347598
-0.388531
-0.417551
-0.432702
-0.444015
-0.457256
-0.469123
-0.471474
-0.457049
-0.425267
-0.386476
-0.355959
-0.351929
-0.0812603
-0.104296
-0.148071
-0.207354
-0.26686
-0.347366
-0.398169
-0.450603
-0.511837
-0.562503
-0.593939
-0.612538
-0.625092
-0.631579
-0.626647
-0.603016
-0.556593
-0.495513
-0.438934
-0.41856
0.0129724
-0.0209484
-0.096541
-0.197948
-0.285995
-0.398588
-0.487273
-0.567311
-0.649454
-0.721213
-0.771555
-0.799276
-0.807248
-0.801226
-0.784157
-0.751747
-0.693353
-0.607578
-0.510028
-0.452681
0.138406
0.0835607
-0.0259665
-0.174974
-0.303455
-0.42594
-0.541593
-0.658057
-0.774299
-0.877838
-0.957331
-0.999719
-0.983554
-0.94131
-0.896484
-0.852124
-0.788224
-0.684774
-0.539552
-0.425656
0.30221
0.209168
0.0779052
-0.0842888
-0.265896
-0.397369
-0.527635
-0.68981
-0.875297
-1.05206
-1.18697
-1.24017
-1.18276
-1.05154
-0.917779
-0.826293
-0.753589
-0.651788
-0.480307
-0.309972
0.525054
0.382595
0.239153
0.116632
-0.0926804
-0.292245
-0.515443
-0.78285
-1.07162
-1.33353
-1.51608
-1.57675
-1.49638
-1.26373
-0.954744
-0.668836
-0.483166
-0.390143
-0.265316
-0.0888335
0.837202
0.689995
0.543382
0.366685
0.075178
-0.26993
-0.665269
-1.06742
-1.41599
-1.67864
-1.8446
-1.90842
-1.85952
-1.66479
-1.27402
-0.695343
-0.132121
0.200084
0.247534
0.314924
1.45422
1.25521
0.951499
0.481845
-0.106542
-0.645451
-1.08631
-1.44569
-1.73058
-1.9417
-2.08086
-2.14793
-2.13342
-2.00905
-1.71965
-1.1791
-0.310815
0.604456
1.10251
1.19911
2.09949
1.62268
0.830053
-0.00156078
-0.584951
-1.00265
-1.34167
-1.62751
-1.86044
-2.0383
-2.16094
-2.22708
-2.22822
-2.14395
-1.94125
-1.57504
-0.944467
0.126368
1.46137
2.18906
)
;

boundaryField
{
    movingWall
    {
        type            zeroGradient;
    }
    fixedWalls
    {
        type            zeroGradient;
    }
    frontAndBack
    {
        type            empty;
    }
}


// ************************************************************************* //
