/*--------------------------------*- C++ -*----------------------------------*\
  =========                 |
  \\      /  F ield         | OpenFOAM: The Open Source CFD Toolbox
   \\    /   O peration     | Website:  https://openfoam.org
    \\  /    A nd           | Version:  8
     \\/     M anipulation  |
\*---------------------------------------------------------------------------*/
FoamFile
{
    version     2.0;
    format      ascii;
    class       surfaceScalarField;
    location    "1";
    object      phi;
}
// * * * * * * * * * * * * * * * * * * * * * * * * * * * * * * * * * * * * * //

dimensions      [0 3 -1 0 0 0 0];

internalField   nonuniform List<scalar> 
760
(
6.40831e-08
-6.40548e-08
-1.33827e-07
1.97911e-07
-6.01282e-07
4.67459e-07
-1.24955e-06
6.48263e-07
-1.98587e-06
7.3632e-07
-2.7292e-06
7.43335e-07
-3.41066e-06
6.8146e-07
-3.97088e-06
5.60214e-07
-4.35817e-06
3.87294e-07
-4.5298e-06
1.71625e-07
-4.45653e-06
-7.32659e-08
-4.12967e-06
-3.26856e-07
-3.56837e-06
-5.61304e-07
-2.82478e-06
-7.4359e-07
-1.98433e-06
-8.40448e-07
-1.15873e-06
-8.25601e-07
-4.70543e-07
-6.8819e-07
-2.98319e-08
-4.40711e-07
1.02179e-07
-1.32009e-07
1.02182e-07
-1.96187e-07
1.32123e-07
-9.659e-07
9.67632e-07
-2.25629e-06
1.75785e-06
-3.90529e-06
2.29727e-06
-5.7269e-06
2.55793e-06
-7.54241e-06
2.55885e-06
-9.19038e-06
2.32943e-06
-1.05287e-05
1.89852e-06
-1.14361e-05
1.29474e-06
-1.18178e-05
5.5327e-07
-1.16149e-05
-2.76186e-07
-1.08177e-05
-1.12404e-06
-9.4782e-06
-1.90078e-06
-7.71754e-06
-2.50425e-06
-5.72351e-06
-2.83449e-06
-3.73377e-06
-2.81534e-06
-2.00228e-06
-2.41969e-06
-7.50047e-07
-1.69295e-06
-1.03257e-07
-7.78807e-07
-1.0725e-09
-5.06017e-07
6.38146e-07
-1.89195e-06
2.35357e-06
-3.9664e-06
3.83229e-06
-6.48896e-06
4.81983e-06
-9.20691e-06
5.27588e-06
-1.18781e-05
5.23009e-06
-1.42814e-05
4.73263e-06
-1.62203e-05
3.83744e-06
-1.75282e-05
2.60269e-06
-1.80763e-05
1.10137e-06
-1.77864e-05
-5.66108e-07
-1.66468e-05
-2.26362e-06
-1.47276e-05
-3.82e-06
-1.21897e-05
-5.04209e-06
-9.28285e-06
-5.74138e-06
-6.32506e-06
-5.77313e-06
-3.66208e-06
-5.08266e-06
-1.60724e-06
-3.74778e-06
-3.71275e-07
-2.01478e-06
-3.72346e-07
-7.89266e-07
1.42742e-06
-2.76789e-06
4.33219e-06
-5.58644e-06
6.65083e-06
-8.91077e-06
8.14416e-06
-1.24256e-05
8.79069e-06
-1.58411e-05
8.64561e-06
-1.8896e-05
7.78749e-06
-2.13588e-05
6.30031e-06
-2.30324e-05
4.2763e-06
-2.37624e-05
1.83129e-06
-2.3451e-05
-8.77487e-07
-2.20753e-05
-3.63931e-06
-1.97053e-05
-6.19003e-06
-1.65179e-05
-8.22951e-06
-1.27999e-05
-9.45934e-06
-8.93209e-06
-9.64094e-06
-5.34799e-06
-8.66676e-06
-2.46878e-06
-6.62699e-06
-6.26101e-07
-3.85745e-06
-9.98446e-07
-1.04161e-06
2.46902e-06
-3.56913e-06
6.85971e-06
-7.08164e-06
1.01633e-05
-1.11482e-05
1.22107e-05
-1.53935e-05
1.3036e-05
-1.94893e-05
1.27414e-05
-2.31469e-05
1.14451e-05
-2.61125e-05
9.26594e-06
-2.81674e-05
6.33114e-06
-2.91342e-05
2.79816e-06
-2.8891e-05
-1.12071e-06
-2.73899e-05
-5.14041e-06
-2.46807e-05
-8.89924e-06
-2.09333e-05
-1.19769e-05
-1.64522e-05
-1.39405e-05
-1.16721e-05
-1.4421e-05
-7.12331e-06
-1.32155e-05
-3.36203e-06
-1.03883e-05
-8.76903e-07
-6.34258e-06
-1.87535e-06
-1.26653e-06
3.73555e-06
-4.29338e-06
9.88657e-06
-8.4423e-06
1.43123e-05
-1.31906e-05
1.69591e-05
-1.81083e-05
1.79537e-05
-2.28369e-05
1.747e-05
-2.70708e-05
1.5679e-05
-3.05436e-05
1.27388e-05
-3.30218e-05
8.80933e-06
-3.43065e-05
4.08288e-06
-3.42445e-05
-1.18269e-06
-3.27485e-05
-6.63649e-06
-2.98257e-05
-1.1822e-05
-2.56131e-05
-1.61895e-05
-2.04101e-05
-1.91435e-05
-1.46942e-05
-2.01368e-05
-9.10221e-06
-1.88076e-05
-4.35774e-06
-1.51327e-05
-1.1516e-06
-9.54872e-06
-3.02695e-06
-1.46637e-06
5.20193e-06
-4.93994e-06
1.33601e-05
-9.65929e-06
1.90316e-05
-1.50185e-05
2.23183e-05
-2.05408e-05
2.34759e-05
-2.58468e-05
2.2776e-05
-3.06252e-05
2.04573e-05
-3.46075e-05
1.67211e-05
-3.75535e-05
1.17553e-05
-3.92456e-05
5.77499e-06
-3.94952e-05
-9.33127e-07
-3.81617e-05
-7.97001e-06
-3.5187e-05
-1.47967e-05
-3.06442e-05
-2.07323e-05
-2.47943e-05
-2.49934e-05
-1.81347e-05
-2.67964e-05
-1.14082e-05
-2.55341e-05
-5.53953e-06
-2.10014e-05
-1.48252e-06
-1.36057e-05
-4.50946e-06
-1.64179e-06
6.84372e-06
-5.50583e-06
1.72242e-05
-1.07181e-05
2.42439e-05
-1.65976e-05
2.81979e-05
-2.26302e-05
2.95084e-05
-2.84278e-05
2.85736e-05
-3.36863e-05
2.57159e-05
-3.81492e-05
2.1184e-05
-4.15816e-05
1.51878e-05
-4.37557e-05
7.94907e-06
-4.44491e-05
-2.39709e-07
-4.34602e-05
-8.95896e-06
-4.06442e-05
-1.76128e-05
-3.59746e-05
-2.54019e-05
-2.96282e-05
-3.13397e-05
-2.20768e-05
-3.43479e-05
-1.41473e-05
-3.34635e-05
-6.99098e-06
-2.81577e-05
-1.90369e-06
-1.8693e-05
-6.41315e-06
-1.79358e-06
8.63731e-06
-5.98903e-06
2.14196e-05
-1.16027e-05
2.98575e-05
-1.78833e-05
3.44785e-05
-2.42896e-05
3.59147e-05
-3.04395e-05
3.47235e-05
-3.60534e-05
3.13298e-05
-4.09052e-05
2.60358e-05
-4.47839e-05
1.90665e-05
-4.74679e-05
1.06331e-05
-4.8713e-05
1.00537e-06
-4.82588e-05
-9.41318e-06
-4.58605e-05
-2.00111e-05
-4.13568e-05
-2.99055e-05
-3.47807e-05
-3.79159e-05
-2.65045e-05
-4.2624e-05
-1.73807e-05
-4.25873e-05
-8.78642e-06
-3.6752e-05
-2.45074e-06
-2.50287e-05
-8.86389e-06
-1.92701e-06
1.05643e-05
-6.39786e-06
2.58905e-05
-1.23077e-05
3.57674e-05
-1.88339e-05
4.10047e-05
-2.54193e-05
4.25001e-05
-3.17063e-05
4.10105e-05
-3.74624e-05
3.70859e-05
-4.25159e-05
3.10894e-05
-4.67053e-05
2.32559e-05
-4.98416e-05
1.37693e-05
-5.16834e-05
2.84724e-06
-5.19298e-05
-9.16682e-06
-5.02382e-05
-2.17027e-05
-4.62867e-05
-3.3857e-05
-3.98992e-05
-4.43035e-05
-3.12453e-05
-5.12779e-05
-2.10898e-05
-5.27429e-05
-1.09805e-05
-4.68612e-05
-3.16235e-06
-3.28469e-05
-1.20262e-05
-2.05906e-06
1.26234e-05
-6.76619e-06
3.05976e-05
-1.28573e-05
4.18585e-05
-1.94294e-05
4.75768e-05
-2.59248e-05
4.89955e-05
-3.2036e-05
4.71217e-05
-3.76065e-05
4.26564e-05
-4.2549e-05
3.60319e-05
-4.6783e-05
2.749e-05
-5.01873e-05
1.71736e-05
-5.25618e-05
5.22172e-06
-5.36021e-05
-8.1265e-06
-5.28946e-05
-2.24102e-05
-4.99542e-05
-3.67974e-05
-4.43411e-05
-4.99166e-05
-3.58986e-05
-5.97204e-05
-2.51254e-05
-6.3516e-05
-1.35909e-05
-5.83958e-05
-4.08243e-06
-4.23554e-05
-1.61087e-05
-2.23005e-06
1.48534e-05
-7.17441e-06
3.5542e-05
-1.33268e-05
4.80109e-05
-1.96896e-05
5.39396e-05
-2.57316e-05
5.50375e-05
-3.12348e-05
5.26249e-05
-3.61562e-05
4.75778e-05
-4.05276e-05
4.04032e-05
-4.43847e-05
3.1347e-05
-4.77132e-05
2.05021e-05
-5.04023e-05
7.9108e-06
-5.22001e-05
-6.32871e-06
-5.26779e-05
-2.19323e-05
-5.12242e-05
-3.82511e-05
-4.7117e-05
-5.40238e-05
-3.97555e-05
-6.70819e-05
-2.91369e-05
-7.41346e-05
-1.65661e-05
-7.09666e-05
-5.26194e-06
-5.36596e-05
-2.13706e-05
-2.52226e-06
1.73757e-05
-7.77502e-06
4.07947e-05
-1.38577e-05
5.40936e-05
-1.96733e-05
5.97551e-05
-2.47741e-05
6.01383e-05
-2.90939e-05
5.69447e-05
-3.27533e-05
5.12372e-05
-3.59408e-05
4.35907e-05
-3.88403e-05
3.42466e-05
-4.15805e-05
2.32423e-05
-4.41868e-05
1.05171e-05
-4.65257e-05
-3.98982e-06
-4.82375e-05
-2.02205e-05
-4.86703e-05
-3.78183e-05
-4.68679e-05
-5.58262e-05
-4.17227e-05
-7.22272e-05
-3.24763e-05
-8.3381e-05
-1.97281e-05
-8.37148e-05
-6.75728e-06
-6.66303e-05
-2.81279e-05
-3.08987e-06
2.04656e-05
-8.81508e-06
4.65199e-05
-1.46414e-05
5.99199e-05
-1.94208e-05
6.45346e-05
-2.29112e-05
6.36287e-05
-2.52983e-05
5.93319e-05
-2.69301e-05
5.28689e-05
-2.81873e-05
4.48479e-05
-2.94227e-05
3.54821e-05
-3.09265e-05
2.47461e-05
-3.2892e-05
1.24825e-05
-3.53611e-05
-1.52066e-06
-3.8139e-05
-1.74427e-05
-4.06675e-05
-3.52898e-05
-4.18963e-05
-5.45974e-05
-4.02656e-05
-7.38578e-05
-3.40779e-05
-8.95686e-05
-2.26682e-05
-9.51245e-05
-8.61275e-06
-8.06858e-05
-3.67406e-05
-4.20008e-06
2.46656e-05
-1.06205e-05
5.29404e-05
-1.57948e-05
6.50942e-05
-1.87426e-05
6.74823e-05
-1.96702e-05
6.45563e-05
-1.91639e-05
5.88256e-05
-1.78682e-05
5.15732e-05
-1.6376e-05
4.33557e-05
-1.52029e-05
3.4309e-05
-1.4787e-05
2.43302e-05
-1.54841e-05
1.31797e-05
-1.7536e-05
5.31204e-07
-2.09879e-05
-1.39908e-05
-2.55303e-05
-3.07474e-05
-3.02526e-05
-4.98752e-05
-3.33803e-05
-7.07301e-05
-3.23004e-05
-9.06486e-05
-2.45521e-05
-0.000102873
-1.07863e-05
-9.44516e-05
-4.75269e-05
-6.24624e-06
3.09119e-05
-1.34043e-05
6.00984e-05
-1.69227e-05
6.86127e-05
-1.66365e-05
6.7196e-05
-1.36266e-05
6.15464e-05
-9.05082e-06
5.42499e-05
-3.88362e-06
4.6406e-05
1.10163e-06
3.83704e-05
5.28551e-06
3.01251e-05
8.14625e-06
2.14694e-05
9.22322e-06
1.21027e-05
8.1107e-06
1.64372e-06
4.5071e-06
-1.03872e-05
-1.64656e-06
-2.45937e-05
-9.86099e-06
-4.16608e-05
-1.85917e-05
-6.19993e-05
-2.47089e-05
-8.45314e-05
-2.3747e-05
-0.000103835
-1.29126e-05
-0.000105286
-6.04395e-05
-9.56057e-06
4.04724e-05
-1.64252e-05
6.6963e-05
-1.58199e-05
6.80074e-05
-9.88823e-06
6.12644e-05
-1.12514e-06
5.27833e-05
8.70398e-06
4.44207e-05
1.84191e-05
3.66909e-05
2.72234e-05
2.95662e-05
3.45399e-05
2.28086e-05
3.98938e-05
1.61155e-05
4.28352e-05
9.16129e-06
4.2896e-05
1.583e-06
3.95881e-05
-7.0793e-06
3.24674e-05
-1.7473e-05
2.13773e-05
-3.05707e-05
7.05196e-06
-4.7674e-05
-7.7693e-06
-6.97101e-05
-1.7212e-05
-9.4392e-05
-1.37617e-05
-0.000108736
-7.42012e-05
-1.34293e-05
5.39018e-05
-1.5079e-05
6.86128e-05
-5.09586e-06
5.80242e-05
9.81213e-06
4.63564e-05
2.58423e-05
3.67532e-05
4.12106e-05
2.90524e-05
5.50372e-05
2.28643e-05
6.68581e-05
1.77453e-05
7.63848e-05
1.32818e-05
8.33661e-05
9.13417e-06
8.75077e-05
5.01975e-06
8.84174e-05
6.73279e-07
8.55699e-05
-4.23183e-06
7.82592e-05
-1.01622e-05
6.56566e-05
-1.79682e-05
4.71824e-05
-2.91998e-05
2.37906e-05
-4.63183e-05
7.09762e-07
-7.13112e-05
-1.02169e-05
-9.78097e-05
-8.44181e-05
-9.40782e-06
6.33096e-05
8.82318e-06
5.03817e-05
3.51815e-05
3.16659e-05
6.00357e-05
2.15023e-05
8.1482e-05
1.53068e-05
9.94499e-05
1.10846e-05
0.000114198
8.11633e-06
0.00012601
5.93358e-06
0.00013509
4.20161e-06
0.000141523
2.70104e-06
0.000145258
1.28452e-06
0.000146089
-1.57336e-07
0.000143624
-1.76685e-06
0.000137162
-3.7002e-06
0.000125531
-6.33787e-06
0.000106883
-1.05517e-05
7.90682e-05
-1.85032e-05
4.22875e-05
-3.45305e-05
6.89612e-06
-6.24183e-05
-7.7522e-05
6.33096e-05
0.000113691
0.000145357
0.000166859
0.000182166
0.000193251
0.000201367
0.000207301
0.000211502
0.000214203
0.000215488
0.000215331
0.000213564
0.000209864
0.000203526
0.000192974
0.000174471
0.00013994
7.7522e-05
)
;

boundaryField
{
    movingWall
    {
        type            calculated;
        value           uniform 0;
    }
    fixedWalls
    {
        type            calculated;
        value           uniform 0;
    }
    frontAndBack
    {
        type            empty;
        value           nonuniform List<scalar> 0();
    }
}


// ************************************************************************* //
