/*--------------------------------*- C++ -*----------------------------------*\
  =========                 |
  \\      /  F ield         | OpenFOAM: The Open Source CFD Toolbox
   \\    /   O peration     | Website:  https://openfoam.org
    \\  /    A nd           | Version:  8
     \\/     M anipulation  |
\*---------------------------------------------------------------------------*/
FoamFile
{
    version     2.0;
    format      ascii;
    class       volVectorField;
    location    "1";
    object      U;
}
// * * * * * * * * * * * * * * * * * * * * * * * * * * * * * * * * * * * * * //

dimensions      [0 1 -1 0 0 0 0];

internalField   nonuniform List<vector> 
400
(
(0.00120482 -0.00120685 0)
(0.000402994 0.00067359 0)
(-0.00645 0.00286762 0)
(-0.017967 0.00434049 0)
(-0.0321724 0.00506918 0)
(-0.0472943 0.00518536 0)
(-0.0618277 0.00480588 0)
(-0.0744906 0.0040073 0)
(-0.0841694 0.00283734 0)
(-0.0899065 0.00134557 0)
(-0.0909597 -0.000383525 0)
(-0.0869234 -0.00220704 0)
(-0.0778805 -0.00391632 0)
(-0.0645372 -0.00525265 0)
(-0.0482864 -0.00594589 0)
(-0.0311481 -0.00577318 0)
(-0.0155461 -0.00462869 0)
(-0.00390941 -0.00259434 0)
(0.00189172 -8.67298e-05 0)
(0.00157709 0.00152435 0)
(-0.000622517 -0.000510732 0)
(-0.00896199 0.00884018 0)
(-0.0300534 0.0184027 0)
(-0.0603806 0.0249842 0)
(-0.0959742 0.0282373 0)
(-0.13316 0.0284679 0)
(-0.168527 0.0260724 0)
(-0.199021 0.0213969 0)
(-0.221992 0.0147499 0)
(-0.235241 0.00649903 0)
(-0.23718 -0.00281645 0)
(-0.227068 -0.0124088 0)
(-0.205286 -0.0212339 0)
(-0.173554 -0.0280754 0)
(-0.135006 -0.0317262 0)
(-0.0940136 -0.0312524 0)
(-0.0556662 -0.0263036 0)
(-0.0249194 -0.0174119 0)
(-0.00569982 -0.00641497 0)
(0.000312451 0.00208271 0)
(-0.00307495 0.00649761 0)
(-0.0201035 0.03033 0)
(-0.055574 0.0520728 0)
(-0.102983 0.0668976 0)
(-0.156647 0.0739915 0)
(-0.211684 0.0737827 0)
(-0.263464 0.0670301 0)
(-0.307781 0.0545286 0)
(-0.34097 0.0371082 0)
(-0.360027 0.0158031 0)
(-0.362815 -0.00794487 0)
(-0.348365 -0.0321518 0)
(-0.317207 -0.0543015 0)
(-0.271637 -0.0715462 0)
(-0.215813 -0.0811165 0)
(-0.155555 -0.0809149 0)
(-0.0977025 -0.0702096 0)
(-0.0490419 -0.050276 0)
(-0.0155786 -0.0250301 0)
(-0.00167169 -0.0026053 0)
(-0.00527152 0.019549 0)
(-0.0305663 0.0642312 0)
(-0.0798704 0.101419 0)
(-0.143242 0.125944 0)
(-0.213196 0.137009 0)
(-0.283875 0.135364 0)
(-0.349817 0.122244 0)
(-0.406064 0.0990015 0)
(-0.448294 0.0671249 0)
(-0.472937 0.02849 0)
(-0.477399 -0.0143407 0)
(-0.460394 -0.0579222 0)
(-0.422319 -0.0979456 0)
(-0.365605 -0.129553 0)
(-0.294921 -0.147991 0)
(-0.217077 -0.149573 0)
(-0.140405 -0.132836 0)
(-0.073614 -0.0995966 0)
(-0.025338 -0.0557515 0)
(-0.00346077 -0.0125722 0)
(-0.00717243 0.0379658 0)
(-0.0400184 0.109525 0)
(-0.102239 0.165025 0)
(-0.180469 0.200188 0)
(-0.265416 0.214957 0)
(-0.350372 0.210789 0)
(-0.429278 0.189588 0)
(-0.496696 0.15336 0)
(-0.547876 0.104298 0)
(-0.578813 0.0451549 0)
(-0.58644 -0.0203514 0)
(-0.568965 -0.087246 0)
(-0.526305 -0.149283 0)
(-0.460571 -0.199319 0)
(-0.376481 -0.230174 0)
(-0.281523 -0.235979 0)
(-0.185497 -0.213877 0)
(-0.0994053 -0.165636 0)
(-0.0352301 -0.09876 0)
(-0.00510978 -0.0275223 0)
(-0.00883547 0.0611546 0)
(-0.0484933 0.165308 0)
(-0.122536 0.241937 0)
(-0.214413 0.288653 0)
(-0.313132 0.306883 0)
(-0.41126 0.299267 0)
(-0.502335 0.268628 0)
(-0.580657 0.217713 0)
(-0.64123 0.14941 0)
(-0.679702 0.067261 0)
(-0.692486 -0.0239729 0)
(-0.677065 -0.117874 0)
(-0.632499 -0.206236 0)
(-0.560073 -0.279396 0)
(-0.464032 -0.327213 0)
(-0.352155 -0.340789 0)
(-0.235661 -0.31483 0)
(-0.128267 -0.250099 0)
(-0.0462021 -0.155183 0)
(-0.00687268 -0.0476225 0)
(-0.0103008 0.0885918 0)
(-0.0560356 0.230573 0)
(-0.140678 0.330971 0)
(-0.244787 0.390122 0)
(-0.355847 0.411669 0)
(-0.465863 0.399942 0)
(-0.568179 0.358961 0)
(-0.657062 0.292301 0)
(-0.727467 0.203469 0)
(-0.774817 0.0966058 0)
(-0.794995 -0.0227482 0)
(-0.784594 -0.146989 0)
(-0.741442 -0.266084 0)
(-0.665444 -0.367716 0)
(-0.559699 -0.438217 0)
(-0.431649 -0.464578 0)
(-0.293628 -0.437585 0)
(-0.162358 -0.355495 0)
(-0.0594081 -0.22711 0)
(-0.00904738 -0.0736602 0)
(-0.011588 0.119782 0)
(-0.0626544 0.304232 0)
(-0.156528 0.430701 0)
(-0.271138 0.503012 0)
(-0.392636 0.527756 0)
(-0.512675 0.511488 0)
(-0.624662 0.459736 0)
(-0.723109 0.37698 0)
(-0.803192 0.26723 0)
(-0.860326 0.134938 0)
(-0.88998 -0.013978 0)
(-0.887805 -0.171176 0)
(-0.850121 -0.325161 0)
(-0.774885 -0.461034 0)
(-0.6632 -0.561143 0)
(-0.521188 -0.607152 0)
(-0.361491 -0.583947 0)
(-0.203752 -0.484989 0)
(-0.0760761 -0.317668 0)
(-0.0119621 -0.107099 0)
(-0.0127176 0.154236 0)
(-0.0683774 0.385119 0)
(-0.169969 0.539441 0)
(-0.292927 0.62526 0)
(-0.422244 0.652901 0)
(-0.54947 0.63175 0)
(-0.6684 0.569184 0)
(-0.774158 0.470683 0)
(-0.862516 0.340624 0)
(-0.929241 0.183429 0)
(-0.96969 0.00486336 0)
(-0.978737 -0.18664 0)
(-0.951114 -0.378776 0)
(-0.882367 -0.554505 0)
(-0.770652 -0.692059 0)
(-0.619368 -0.766648 0)
(-0.439946 -0.754852 0)
(-0.254093 -0.641957 0)
(-0.0974664 -0.430925 0)
(-0.0159989 -0.150109 0)
(-0.0137574 0.191505 0)
(-0.0733952 0.472048 0)
(-0.181127 0.655217 0)
(-0.309791 0.754153 0)
(-0.44335 0.783867 0)
(-0.573564 0.757287 0)
(-0.695043 0.684051 0)
(-0.803989 0.57077 0)
(-0.897273 0.422063 0)
(-0.971534 0.241961 0)
(-1.02255 0.0354868 0)
(-1.04486 -0.189665 0)
(-1.03188 -0.421363 0)
(-0.976561 -0.64138 0)
(-0.873242 -0.824324 0)
(-0.720881 -0.938308 0)
(-0.527305 -0.949062 0)
(-0.314163 -0.829066 0)
(-0.124859 -0.571578 0)
(-0.0216456 -0.205608 0)
(-0.0149028 0.231337 0)
(-0.0782995 0.563996 0)
(-0.190725 0.775809 0)
(-0.321928 0.886179 0)
(-0.454937 0.916093 0)
(-0.582187 0.882923 0)
(-0.699669 0.79905 0)
(-0.805253 0.672381 0)
(-0.897516 0.507695 0)
(-0.974638 0.308317 0)
(-1.03354 0.0779346 0)
(-1.06926 -0.177406 0)
(-1.07454 -0.447036 0)
(-1.0401 -0.713089 0)
(-0.955994 -0.94798 0)
(-0.815015 -1.11313 0)
(-0.618176 -1.1614 0)
(-0.38319 -1.04678 0)
(-0.159503 -0.744362 0)
(-0.0295758 -0.277359 0)
(-0.016613 0.274007 0)
(-0.084441 0.660482 0)
(-0.200533 0.898859 0)
(-0.330493 1.01686 0)
(-0.456608 1.04337 0)
(-0.572755 1.00132 0)
(-0.67711 0.906376 0)
(-0.769935 0.767896 0)
(-0.852188 0.590772 0)
(-0.924311 0.37739 0)
(-0.985249 0.129635 0)
(-1.03154 -0.148961 0)
(-1.05649 -0.450615 0)
(-1.04959 -0.759923 0)
(-0.997005 -1.04967 0)
(-0.884178 -1.2767 0)
(-0.701771 -1.3806 0)
(-0.457708 -1.29115 0)
(-0.202441 -0.952965 0)
(-0.0407611 -0.370116 0)
(-0.0198515 0.320969 0)
(-0.0944468 0.76213 0)
(-0.213822 1.02193 0)
(-0.33775 1.14046 0)
(-0.448432 1.15738 0)
(-0.542576 1.10256 0)
(-0.621718 0.995356 0)
(-0.689364 0.846629 0)
(-0.749517 0.661301 0)
(-0.805519 0.440688 0)
(-0.859124 0.184608 0)
(-0.909508 -0.106518 0)
(-0.952029 -0.429074 0)
(-0.976788 -0.772466 0)
(-0.967621 -1.11348 0)
(-0.902861 -1.40868 0)
(-0.759958 -1.58711 0)
(-0.529786 -1.55066 0)
(-0.253993 -1.19808 0)
(-0.0565905 -0.48982 0)
(-0.0265038 0.375995 0)
(-0.112903 0.871318 0)
(-0.235472 1.14219 0)
(-0.346287 1.24913 0)
(-0.429448 1.24691 0)
(-0.487017 1.17359 0)
(-0.525568 1.05224 0)
(-0.552788 0.894896 0)
(-0.576221 0.706246 0)
(-0.602442 0.486443 0)
(-0.636454 0.233242 0)
(-0.68089 -0.0561831 0)
(-0.734662 -0.383104 0)
(-0.790823 -0.743751 0)
(-0.833857 -1.12302 0)
(-0.837435 -1.48375 0)
(-0.765281 -1.75161 0)
(-0.584341 -1.80237 0)
(-0.312421 -1.4739 0)
(-0.0788474 -0.643524 0)
(-0.0400044 0.447057 0)
(-0.146904 0.992415 0)
(-0.270644 1.25489 0)
(-0.355529 1.33108 0)
(-0.392796 1.2964 0)
(-0.394149 1.19756 0)
(-0.373303 1.06028 0)
(-0.342882 0.896698 0)
(-0.314009 0.710601 0)
(-0.29622 0.500788 0)
(-0.297504 0.263189 0)
(-0.324037 -0.00781446 0)
(-0.379161 -0.318147 0)
(-0.461099 -0.671713 0)
(-0.558972 -1.06497 0)
(-0.647014 -1.47474 0)
(-0.679054 -1.83553 0)
(-0.595012 -2.00812 0)
(-0.370509 -1.76247 0)
(-0.108907 -0.838424 0)
(-0.0657119 0.549457 0)
(-0.20474 1.1301 0)
(-0.318343 1.34897 0)
(-0.351041 1.36655 0)
(-0.313265 1.28364 0)
(-0.232427 1.1532 0)
(-0.130999 1.00053 0)
(-0.026271 0.835576 0)
(0.068078 0.659902 0)
(0.140851 0.470584 0)
(0.182361 0.262098 0)
(0.183913 0.0270396 0)
(0.138114 -0.243759 0)
(0.0404754 -0.560786 0)
(-0.106558 -0.933082 0)
(-0.285249 -1.35803 0)
(-0.449419 -1.79467 0)
(-0.517737 -2.11262 0)
(-0.407748 -2.02671 0)
(-0.144209 -1.08069 0)
(-0.108537 0.712098 0)
(-0.286051 1.28069 0)
(-0.348933 1.3935 0)
(-0.276085 1.31796 0)
(-0.119736 1.17505 0)
(0.072966 1.01422 0)
(0.272889 0.853886 0)
(0.46124 0.698102 0)
(0.624905 0.544517 0)
(0.753794 0.388074 0)
(0.838954 0.222328 0)
(0.87136 0.039488 0)
(0.841425 -0.170457 0)
(0.739317 -0.421196 0)
(0.557329 -0.73124 0)
(0.297799 -1.11992 0)
(-0.00900595 -1.58548 0)
(-0.281504 -2.04298 0)
(-0.37602 -2.20034 0)
(-0.167769 -1.37361 0)
(-0.155412 0.978385 0)
(-0.340056 1.40035 0)
(-0.237074 1.30634 0)
(0.0334898 1.11467 0)
(0.355056 0.923693 0)
(0.674816 0.754255 0)
(0.969792 0.60861 0)
(1.22809 0.481858 0)
(1.44289 0.367069 0)
(1.60928 0.257473 0)
(1.7221 0.146714 0)
(1.77473 0.0282293 0)
(1.75824 -0.10606 0)
(1.66041 -0.268158 0)
(1.46535 -0.47816 0)
(1.15683 -0.768816 0)
(0.731188 -1.18057 0)
(0.228174 -1.71321 0)
(-0.173244 -2.15928 0)
(-0.118897 -1.67483 0)
(-0.0475283 1.2694 0)
(-0.0720016 1.31678 0)
(0.411484 0.968903 0)
(0.958234 0.709509 0)
(1.42953 0.529315 0)
(1.82315 0.3984 0)
(2.14924 0.301124 0)
(2.41415 0.226121 0)
(2.62264 0.164574 0)
(2.77776 0.110103 0)
(2.87997 0.0579978 0)
(2.92683 0.0042791 0)
(2.91261 -0.0552932 0)
(2.82685 -0.127348 0)
(2.6517 -0.224371 0)
(2.35828 -0.373261 0)
(1.9017 -0.630341 0)
(1.22447 -1.07913 0)
(0.4528 -1.68841 0)
(0.217482 -1.70166 0)
(1.4382 0.707168 0)
(1.83563 0.626549 0)
(2.56324 0.398259 0)
(3.13731 0.251653 0)
(3.51169 0.164246 0)
(3.76888 0.109423 0)
(3.95643 0.0739972 0)
(4.09479 0.0502341 0)
(4.19493 0.0331188 0)
(4.26329 0.019521 0)
(4.30295 0.00749164 0)
(4.31443 -0.00430709 0)
(4.29587 -0.0169539 0)
(4.2425 -0.0321715 0)
(4.14453 -0.0531762 0)
(3.98079 -0.0879774 0)
(3.70208 -0.158348 0)
(3.17404 -0.31614 0)
(2.2993 -0.622709 0)
(1.6681 -0.779802 0)
)
;

boundaryField
{
    movingWall
    {
        type            fixedValue;
        value           uniform (5.07366 0 0);
    }
    fixedWalls
    {
        type            noSlip;
    }
    frontAndBack
    {
        type            empty;
    }
}


// ************************************************************************* //
