/*--------------------------------*- C++ -*----------------------------------*\
  =========                 |
  \\      /  F ield         | OpenFOAM: The Open Source CFD Toolbox
   \\    /   O peration     | Website:  https://openfoam.org
    \\  /    A nd           | Version:  9
     \\/     M anipulation  |
\*---------------------------------------------------------------------------*/
FoamFile
{
    format      ascii;
    class       volScalarField;
    location    "0.07";
    object      p;
}
// * * * * * * * * * * * * * * * * * * * * * * * * * * * * * * * * * * * * * //

dimensions      [0 2 -2 0 0 0 0];

internalField   nonuniform List<scalar> 
40
(
-0.243458
-0.25224
-0.262632
-0.272058
-0.272103
-0.259574
-0.276327
-0.294058
-0.311521
-0.322403
-0.234184
-0.259867
-0.286279
-0.315368
-0.343463
-0.369494
-0.390039
-0.249275
-0.289156
-0.330351
-0.373821
-0.414237
-0.450484
-0.481645
-0.265044
-0.331046
-0.389067
-0.449442
-0.504311
-0.552184
-0.592601
-0.275571
-0.372228
-0.452512
-0.53198
-0.600391
-0.666738
-0.718071
-0.769888
-0.845776
)
;

boundaryField
{
    movingWall
    {
        type            zeroGradient;
    }
    fixedWalls
    {
        type            zeroGradient;
    }
    frontAndBack
    {
        type            empty;
    }
    procBoundary3to1
    {
        type            processor;
        value           nonuniform List<scalar> 8(-0.212205 -0.218804 -0.229927 -0.229927 -0.209418 -0.200201 -0.186483 -0.174467);
    }
    procBoundary3to2
    {
        type            processor;
        value           nonuniform List<scalar> 5(-0.211758 -0.225613 -0.235806 -0.241207 -0.234942);
    }
    procBoundary3to4
    {
        type            processor;
        value           nonuniform List<scalar> 8(-0.271902 -0.367643 -0.475375 -0.582233 -0.672322 -0.672322 -0.848515 -0.970014);
    }
    procBoundary3to5
    {
        type            processor;
        value           nonuniform List<scalar> 2(-0.270651 -0.328908);
    }
    procBoundary3to6
    {
        type            processor;
        value           nonuniform List<scalar> 5(-0.401 -0.494838 -0.611397 -0.745809 -0.892648);
    }
}


// ************************************************************************* //
