/*--------------------------------*- C++ -*----------------------------------*\
  =========                 |
  \\      /  F ield         | OpenFOAM: The Open Source CFD Toolbox
   \\    /   O peration     | Website:  https://openfoam.org
    \\  /    A nd           | Version:  9
     \\/     M anipulation  |
\*---------------------------------------------------------------------------*/
FoamFile
{
    format      ascii;
    class       volScalarField;
    location    "0.1";
    object      p;
}
// * * * * * * * * * * * * * * * * * * * * * * * * * * * * * * * * * * * * * //

dimensions      [0 2 -2 0 0 0 0];

internalField   nonuniform List<scalar> 
40
(
-0.497342
-0.497335
-0.494332
-0.492244
-0.494215
-0.493724
-0.497861
-0.501678
-0.507653
-0.521512
-0.483202
-0.489971
-0.500328
-0.460333
-0.471449
-0.493739
-0.417991
-0.436672
-0.480734
-0.34801
-0.381623
-0.467733
-0.241394
-0.297306
-0.420492
-0.0937846
-0.184864
-0.330795
0.0971924
-0.0396777
-0.179933
0.357032
0.218289
0.121801
0.932107
0.763564
0.470681
1.57512
1.10273
0.346337
)
;

boundaryField
{
    movingWall
    {
        type            zeroGradient;
    }
    fixedWalls
    {
        type            zeroGradient;
    }
    frontAndBack
    {
        type            empty;
    }
    procBoundary1to0
    {
        type            processor;
        value           nonuniform List<scalar> 5(-0.499045 -0.497854 -0.496231 -0.497337 -0.508248);
    }
    procBoundary1to3
    {
        type            processor;
        value           nonuniform List<scalar> 8(-0.534975 -0.531107 -0.5584 -0.562979 -0.531107 -0.549855 -0.568944 -0.584709);
    }
    procBoundary1to4
    {
        type            processor;
        value           nonuniform List<scalar> 6(-0.576177 -0.526178 -0.361795 -0.0860187 -0.00326251 -0.43711);
    }
}


// ************************************************************************* //
