/*--------------------------------*- C++ -*----------------------------------*\
  =========                 |
  \\      /  F ield         | OpenFOAM: The Open Source CFD Toolbox
   \\    /   O peration     | Website:  https://openfoam.org
    \\  /    A nd           | Version:  9
     \\/     M anipulation  |
\*---------------------------------------------------------------------------*/
FoamFile
{
    format      ascii;
    class       volVectorField;
    location    "0.06";
    object      U;
}
// * * * * * * * * * * * * * * * * * * * * * * * * * * * * * * * * * * * * * //

dimensions      [0 1 -1 0 0 0 0];

internalField   nonuniform List<vector> 
40
(
(-0.65506 -1.40908 0)
(-0.49174 -1.46607 0)
(-0.260988 -1.21666 0)
(-0.0673332 -0.536812 0)
(-0.566979 -0.878865 0)
(-0.613361 -1.20665 0)
(-0.612023 -1.50136 0)
(-0.518033 -1.65128 0)
(-0.316044 -1.46282 0)
(-0.0944159 -0.701528 0)
(-0.217415 -0.793227 0)
(-0.343245 -1.13928 0)
(-0.450967 -1.49819 0)
(-0.476623 -1.76371 0)
(-0.357904 -1.69818 0)
(-0.126793 -0.91042 0)
(0.33846 -0.63939 0)
(0.133001 -0.964748 0)
(-0.103316 -1.35527 0)
(-0.302 -1.73828 0)
(-0.346722 -1.86904 0)
(-0.150502 -1.16875 0)
(1.14742 -0.42687 0)
(0.884696 -0.679306 0)
(0.529222 -1.03607 0)
(0.118783 -1.49216 0)
(-0.191526 -1.8704 0)
(-0.114551 -1.44875 0)
(2.26016 -0.199866 0)
(1.99973 -0.335343 0)
(1.59693 -0.569313 0)
(1.00539 -0.967942 0)
(0.348228 -1.50105 0)
(0.174417 -1.50519 0)
(3.70625 -0.0452966 0)
(3.56296 -0.0781367 0)
(3.31262 -0.145437 0)
(2.83099 -0.292226 0)
(2.04743 -0.56728 0)
(1.4945 -0.703164 0)
)
;

boundaryField
{
    movingWall
    {
        type            fixedValue;
        value           uniform (4.59632 0 0);
    }
    fixedWalls
    {
        type            noSlip;
    }
    frontAndBack
    {
        type            empty;
    }
    procBoundary9to6
    {
        type            processor;
        value           nonuniform List<vector> 6((-0.504018 -0.560201 0) (-0.11471 -0.486612 0) (0.472192 -0.377971 0) (1.29175 -0.244444 0) (2.37609 -0.112892 0) (3.72984 -0.0261712 0));
    }
    procBoundary9to8
    {
        type            processor;
        value           nonuniform List<vector> 7((-0.61632 -1.2339 0) (-0.426016 -1.22599 0) (-0.203973 -0.966725 0) (-0.0462724 -0.401119 0) (-0.744019 -0.884048 0) (-0.722527 -1.16353 0) (-0.722527 -1.16353 0));
    }
}


// ************************************************************************* //
