/*--------------------------------*- C++ -*----------------------------------*\
| =========                 |                                                 |
| \\      /  F ield         | OpenFOAM: The Open Source CFD Toolbox           |
|  \\    /   O peration     | Version:  2212                                  |
|   \\  /    A nd           | Website:  www.openfoam.com                      |
|    \\/     M anipulation  |                                                 |
\*---------------------------------------------------------------------------*/
FoamFile
{
    version     2.0;
    format      ascii;
    arch        "LSB;label=32;scalar=64";
    class       volVectorField;
    location    "0.1";
    object      U;
}
// * * * * * * * * * * * * * * * * * * * * * * * * * * * * * * * * * * * * * //

dimensions      [0 1 -1 0 0 0 0];

internalField   nonuniform List<vector> 
44
(
(0.00378973 0 0)
(0.00398279 0 0)
(0.00408018 0 0)
(0.00408013 0 0)
(0.00398266 0 0)
(0.00378949 0 0)
(0.00350422 0 0)
(0.0116043 0 0)
(0.0121946 0 0)
(0.0124923 0 0)
(0.0124921 0 0)
(0.0121942 0 0)
(0.0116036 0 0)
(0.0107313 0 0)
(0.0201307 0 0)
(0.0211513 0 0)
(0.0216658 0 0)
(0.0216656 0 0)
(0.0211505 0 0)
(0.0201294 0 0)
(0.0186203 0 0)
(0.0298636 0 0)
(0.0313699 0 0)
(0.0321288 0 0)
(0.0321284 0 0)
(0.0313687 0 0)
(0.0298616 0 0)
(0.0276323 0 0)
(0.0413274 0 0)
(0.0433968 0 0)
(0.0444384 0 0)
(0.0444376 0 0)
(0.0433949 0 0)
(0.0413243 0 0)
(0.0382577 0 0)
(0.0550855 0 0)
(0.0578172 0 0)
(0.0591902 0 0)
(0.0591884 0 0)
(0.0578144 0 0)
(0.0550811 0 0)
(0.0510262 0 0)
(0.0752581 0 0)
(0.0717438 0 0)
)
;

boundaryField
{
    movingWall
    {
        type            fixedValue;
        value           nonuniform List<vector> 0();
    }
    fixedWalls
    {
        type            noSlip;
    }
    frontAndBack
    {
        type            empty;
    }
    procBoundary1to0
    {
        type            processor;
        value           nonuniform List<vector> 6((0.0035047 0 0) (0.0107327 0 0) (0.0186228 0 0) (0.0276362 0 0) (0.0382637 0 0) (0.0510361 0 0));
    }
    procBoundary1to2
    {
        type            processor;
        value           nonuniform List<vector> 8((0.00313277 0 0) (0.00959495 0 0) (0.016653 0 0) (0.0247232 0 0) (0.0342504 0 0) (0.0457194 0 0) (0.066524 0 0) (0.066524 0 0));
    }
    procBoundary1to4
    {
        type            processor;
        value           nonuniform List<vector> 7((0.0717555 0 0) (0.0752673 0 0) (0.0770295 0 0) (0.0770251 0 0) (0.0770251 0 0) (0.0964175 0 0) (0.0919893 0 0));
    }
}


// ************************************************************************* //
