/*--------------------------------*- C++ -*----------------------------------*\
  =========                 |
  \\      /  F ield         | OpenFOAM: The Open Source CFD Toolbox
   \\    /   O peration     | Website:  https://openfoam.org
    \\  /    A nd           | Version:  8
     \\/     M anipulation  |
\*---------------------------------------------------------------------------*/
FoamFile
{
    version     2.0;
    format      ascii;
    class       volScalarField;
    location    "1";
    object      p;
}
// * * * * * * * * * * * * * * * * * * * * * * * * * * * * * * * * * * * * * //

dimensions      [0 2 -2 0 0 0 0];

internalField   nonuniform List<scalar> 
400
(
-0.099156
-0.19812
-0.251254
-0.276624
-0.280255
-0.268039
-0.243101
-0.206026
-0.159459
-0.106392
-0.0490565
0.0103634
0.0691016
0.124016
0.172234
0.211707
0.241442
0.261424
0.272434
0.276095
-0.198508
-0.238973
-0.268494
-0.283638
-0.282621
-0.267767
-0.241427
-0.204293
-0.158551
-0.106558
-0.0501314
0.00870625
0.0671745
0.121999
0.170112
0.209295
0.238476
0.257584
0.266981
0.266629
-0.250192
-0.268396
-0.280198
-0.284598
-0.277268
-0.25992
-0.233852
-0.198759
-0.156185
-0.107911
-0.0550827
0.000838152
0.0572673
0.110702
0.157595
0.195299
0.222631
0.239735
0.247175
0.245424
-0.273192
-0.280689
-0.280693
-0.276497
-0.263873
-0.244746
-0.22
-0.188506
-0.151181
-0.109189
-0.0627653
-0.0124311
0.0397264
0.0900709
0.134503
0.169813
0.194568
0.209032
0.21412
0.210867
-0.278015
-0.279046
-0.271599
-0.261007
-0.244049
-0.223502
-0.200419
-0.173101
-0.141981
-0.107902
-0.0703109
-0.0285533
0.0162027
0.0605744
0.100183
0.131432
0.152653
0.164026
0.16676
0.16229
-0.270327
-0.267622
-0.255714
-0.241035
-0.2211
-0.199725
-0.178627
-0.15574
-0.130991
-0.105426
-0.0782921
-0.0478138
-0.0137513
0.0214574
0.053731
0.0793779
0.0964553
0.104753
0.105724
0.10098
-0.255755
-0.251818
-0.23825
-0.222208
-0.201241
-0.179954
-0.161164
-0.142753
-0.123659
-0.10558
-0.0887055
-0.0708
-0.0499494
-0.0267689
-0.00410557
0.0148161
0.0277819
0.0337762
0.034195
0.0304763
-0.239626
-0.236784
-0.224493
-0.210283
-0.190977
-0.171255
-0.155307
-0.141919
-0.127866
-0.115187
-0.106342
-0.100049
-0.0930316
-0.0833421
-0.0714873
-0.0594359
-0.0495742
-0.0442383
-0.0427708
-0.0445211
-0.22437
-0.224883
-0.216878
-0.208202
-0.194433
-0.179094
-0.167145
-0.160701
-0.152923
-0.144299
-0.140162
-0.142093
-0.146698
-0.149398
-0.147498
-0.140863
-0.131831
-0.124622
-0.120442
-0.120429
-0.208217
-0.213776
-0.212737
-0.213414
-0.210304
-0.204521
-0.198645
-0.202445
-0.205326
-0.202727
-0.201454
-0.207358
-0.218946
-0.230068
-0.234758
-0.230199
-0.218337
-0.205755
-0.197045
-0.196625
-0.18503
-0.196173
-0.20463
-0.218394
-0.231709
-0.244076
-0.248044
-0.265401
-0.285265
-0.294923
-0.298846
-0.306561
-0.32024
-0.334181
-0.340263
-0.333026
-0.313571
-0.290895
-0.274562
-0.274353
-0.145644
-0.162226
-0.184309
-0.216114
-0.250923
-0.293021
-0.314359
-0.347534
-0.388462
-0.417477
-0.432623
-0.443933
-0.457169
-0.469033
-0.471382
-0.456957
-0.425178
-0.38639
-0.355876
-0.351846
-0.0812253
-0.104259
-0.14803
-0.207308
-0.266808
-0.347306
-0.398103
-0.450531
-0.511757
-0.562415
-0.593845
-0.612438
-0.624986
-0.631469
-0.626536
-0.602905
-0.556487
-0.495413
-0.43884
-0.418467
0.0129982
-0.0209197
-0.0965057
-0.197904
-0.285942
-0.398525
-0.487201
-0.56723
-0.649363
-0.721112
-0.771444
-0.799157
-0.807121
-0.801096
-0.784025
-0.751618
-0.693229
-0.607463
-0.509923
-0.452583
0.13842
0.0835788
-0.0259394
-0.174935
-0.303404
-0.425876
-0.541518
-0.657971
-0.774201
-0.877727
-0.957206
-0.999579
-0.983406
-0.94116
-0.896338
-0.85198
-0.788086
-0.684647
-0.539441
-0.425558
0.302208
0.209172
0.0779208
-0.0842589
-0.26585
-0.397311
-0.527564
-0.689724
-0.875193
-1.05194
-1.18683
-1.24001
-1.18259
-1.05137
-0.917627
-0.826151
-0.753453
-0.651661
-0.480198
-0.309883
0.52503
0.382582
0.239153
0.116644
-0.0926505
-0.292198
-0.515375
-0.782757
-1.0715
-1.33338
-1.5159
-1.57656
-1.49618
-1.26354
-0.954588
-0.668709
-0.483058
-0.390043
-0.265228
-0.0887637
0.837149
0.689955
0.543355
0.366673
0.0751919
-0.269886
-0.66519
-1.0673
-1.41583
-1.67845
-1.84439
-1.90819
-1.85929
-1.66457
-1.27383
-0.695214
-0.13205
0.200121
0.247569
0.314954
1.45411
1.25512
0.951437
0.481822
-0.106515
-0.645376
-1.0862
-1.44553
-1.73039
-1.94148
-2.08063
-2.14767
-2.13316
-2.0088
-1.71943
-1.17892
-0.310725
0.604453
1.10245
1.19905
2.09933
1.62255
0.829998
-0.00154487
-0.584883
-1.00255
-1.34152
-1.62734
-1.86024
-2.03807
-2.16069
-2.22682
-2.22796
-2.14369
-1.941
-1.57483
-0.944315
0.126415
1.46128
2.1889
)
;

boundaryField
{
    movingWall
    {
        type            zeroGradient;
    }
    fixedWalls
    {
        type            zeroGradient;
    }
    frontAndBack
    {
        type            empty;
    }
}


// ************************************************************************* //
