/*--------------------------------*- C++ -*----------------------------------*\
  =========                 |
  \\      /  F ield         | OpenFOAM: The Open Source CFD Toolbox
   \\    /   O peration     | Website:  https://openfoam.org
    \\  /    A nd           | Version:  8
     \\/     M anipulation  |
\*---------------------------------------------------------------------------*/
FoamFile
{
    version     2.0;
    format      ascii;
    class       surfaceScalarField;
    location    "1";
    object      phi;
}
// * * * * * * * * * * * * * * * * * * * * * * * * * * * * * * * * * * * * * //

dimensions      [0 3 -1 0 0 0 0];

internalField   nonuniform List<scalar> 
760
(
6.40789e-08
-6.40493e-08
-1.33814e-07
1.97894e-07
-6.01231e-07
4.6742e-07
-1.24944e-06
6.48211e-07
-1.9857e-06
7.36261e-07
-2.72898e-06
7.43275e-07
-3.41038e-06
6.81403e-07
-3.97055e-06
5.60166e-07
-4.35781e-06
3.87258e-07
-4.52941e-06
1.71606e-07
-4.45615e-06
-7.32626e-08
-4.12932e-06
-3.26828e-07
-3.56807e-06
-5.61254e-07
-2.82454e-06
-7.43522e-07
-1.98417e-06
-8.40371e-07
-1.15865e-06
-8.25528e-07
-4.70516e-07
-6.88132e-07
-2.98377e-08
-4.40678e-07
1.02168e-07
-1.32003e-07
1.02171e-07
-1.96168e-07
1.3211e-07
-9.65815e-07
9.67549e-07
-2.25609e-06
1.7577e-06
-3.90496e-06
2.29708e-06
-5.72642e-06
2.55772e-06
-7.54179e-06
2.55864e-06
-9.18962e-06
2.32923e-06
-1.05278e-05
1.89835e-06
-1.14352e-05
1.29463e-06
-1.18168e-05
5.53213e-07
-1.16139e-05
-2.76171e-07
-1.08168e-05
-1.12395e-06
-9.47739e-06
-1.90061e-06
-7.7169e-06
-2.50402e-06
-5.72304e-06
-2.83423e-06
-3.73347e-06
-2.81509e-06
-2.00213e-06
-2.41948e-06
-7.50001e-07
-1.69282e-06
-1.03256e-07
-7.78758e-07
-1.08213e-09
-5.05971e-07
6.38087e-07
-1.89179e-06
2.35337e-06
-3.96606e-06
3.83197e-06
-6.48841e-06
4.81943e-06
-9.20614e-06
5.27545e-06
-1.18772e-05
5.22966e-06
-1.42802e-05
4.73223e-06
-1.62189e-05
3.8371e-06
-1.75267e-05
2.60245e-06
-1.80748e-05
1.10125e-06
-1.77849e-05
-5.66075e-07
-1.66454e-05
-2.26343e-06
-1.47263e-05
-3.81966e-06
-1.21887e-05
-5.04164e-06
-9.28207e-06
-5.74086e-06
-6.32454e-06
-5.77262e-06
-3.66179e-06
-5.08223e-06
-1.60713e-06
-3.74748e-06
-3.71253e-07
-2.01463e-06
-3.72333e-07
-7.89195e-07
1.42729e-06
-2.76765e-06
4.33182e-06
-5.58596e-06
6.65028e-06
-8.91002e-06
8.14349e-06
-1.24245e-05
8.78997e-06
-1.58398e-05
8.64489e-06
-1.88944e-05
7.78683e-06
-2.1357e-05
6.29976e-06
-2.30305e-05
4.27591e-06
-2.37603e-05
1.8311e-06
-2.3449e-05
-8.7744e-07
-2.20734e-05
-3.63901e-06
-1.97036e-05
-6.18949e-06
-1.65164e-05
-8.22877e-06
-1.27988e-05
-9.45849e-06
-8.93134e-06
-9.64008e-06
-5.34756e-06
-8.66601e-06
-2.46859e-06
-6.62645e-06
-6.26059e-07
-3.85717e-06
-9.98392e-07
-1.04151e-06
2.4688e-06
-3.56882e-06
6.85912e-06
-7.08103e-06
1.01625e-05
-1.11473e-05
1.22097e-05
-1.53922e-05
1.30349e-05
-1.94877e-05
1.27403e-05
-2.3145e-05
1.14441e-05
-2.61103e-05
9.26513e-06
-2.8165e-05
6.33055e-06
-2.91317e-05
2.79786e-06
-2.88885e-05
-1.12067e-06
-2.73875e-05
-5.14e-06
-2.46785e-05
-8.89848e-06
-2.09314e-05
-1.19759e-05
-1.64507e-05
-1.39392e-05
-1.16711e-05
-1.44197e-05
-7.12271e-06
-1.32144e-05
-3.36176e-06
-1.03874e-05
-8.76839e-07
-6.34209e-06
-1.87523e-06
-1.26642e-06
3.73521e-06
-4.29302e-06
9.88572e-06
-8.44159e-06
1.43111e-05
-1.31896e-05
1.69577e-05
-1.81068e-05
1.79522e-05
-2.2835e-05
1.74685e-05
-2.70685e-05
1.56777e-05
-3.0541e-05
1.27376e-05
-3.3019e-05
8.80849e-06
-3.43035e-05
4.08243e-06
-3.42415e-05
-1.18269e-06
-3.27455e-05
-6.636e-06
-2.9823e-05
-1.1821e-05
-2.56108e-05
-1.61881e-05
-2.04082e-05
-1.91418e-05
-1.46929e-05
-2.0135e-05
-9.1014e-06
-1.88059e-05
-4.35737e-06
-1.51314e-05
-1.15151e-06
-9.54795e-06
-3.02674e-06
-1.46625e-06
5.20147e-06
-4.93953e-06
1.3359e-05
-9.65851e-06
1.903e-05
-1.50173e-05
2.23165e-05
-2.05391e-05
2.3474e-05
-2.58448e-05
2.27742e-05
-3.06227e-05
2.04556e-05
-3.46047e-05
1.67196e-05
-3.75503e-05
1.17542e-05
-3.92422e-05
5.77432e-06
-3.94917e-05
-9.33224e-07
-3.81582e-05
-7.96946e-06
-3.51838e-05
-1.47955e-05
-3.06413e-05
-2.07305e-05
-2.4792e-05
-2.49911e-05
-1.8133e-05
-2.67939e-05
-1.14071e-05
-2.55318e-05
-5.53903e-06
-2.09995e-05
-1.48239e-06
-1.36046e-05
-4.50913e-06
-1.64166e-06
6.84313e-06
-5.5054e-06
1.72228e-05
-1.07173e-05
2.42419e-05
-1.65963e-05
2.81956e-05
-2.26284e-05
2.9506e-05
-2.84255e-05
2.85713e-05
-3.36836e-05
2.57137e-05
-3.81461e-05
2.11821e-05
-4.15782e-05
1.51863e-05
-4.3752e-05
7.94812e-06
-4.44452e-05
-2.39978e-07
-4.34562e-05
-8.95844e-06
-4.06404e-05
-1.76114e-05
-3.59712e-05
-2.53997e-05
-2.96254e-05
-3.13369e-05
-2.20746e-05
-3.43447e-05
-1.41459e-05
-3.34604e-05
-6.99031e-06
-2.81551e-05
-1.90352e-06
-1.86914e-05
-6.41265e-06
-1.79345e-06
8.63658e-06
-5.98859e-06
2.14179e-05
-1.16018e-05
2.98552e-05
-1.7882e-05
3.44758e-05
-2.42878e-05
3.59119e-05
-3.04372e-05
3.47206e-05
-3.60506e-05
3.13271e-05
-4.0902e-05
2.60334e-05
-4.47803e-05
1.90646e-05
-4.74639e-05
1.06318e-05
-4.87087e-05
1.00484e-06
-4.82544e-05
-9.41278e-06
-4.58561e-05
-2.00096e-05
-4.13528e-05
-2.9903e-05
-3.47772e-05
-3.79126e-05
-2.65018e-05
-4.26201e-05
-1.73789e-05
-4.25833e-05
-8.78553e-06
-3.67485e-05
-2.4505e-06
-2.50264e-05
-8.86315e-06
-1.92687e-06
1.05635e-05
-6.39743e-06
2.58885e-05
-1.23069e-05
3.57646e-05
-1.88326e-05
4.10015e-05
-2.54175e-05
4.24968e-05
-3.1704e-05
4.10071e-05
-3.74596e-05
3.70827e-05
-4.25127e-05
3.10865e-05
-4.67017e-05
2.32535e-05
-4.98375e-05
1.37676e-05
-5.1679e-05
2.84637e-06
-5.19251e-05
-9.16664e-06
-5.02335e-05
-2.17013e-05
-4.62822e-05
-3.38543e-05
-3.98951e-05
-4.42997e-05
-3.12421e-05
-5.12732e-05
-2.10875e-05
-5.27378e-05
-1.09794e-05
-4.68567e-05
-3.16203e-06
-3.28438e-05
-1.20252e-05
-2.05894e-06
1.26224e-05
-6.76579e-06
3.05953e-05
-1.28566e-05
4.18554e-05
-1.94283e-05
4.75732e-05
-2.59231e-05
4.89917e-05
-3.20339e-05
4.71179e-05
-3.7604e-05
4.26527e-05
-4.2546e-05
3.60285e-05
-4.67795e-05
2.74871e-05
-5.01833e-05
1.71714e-05
-5.25574e-05
5.22044e-06
-5.35974e-05
-8.12664e-06
-5.28897e-05
-2.2409e-05
-4.99493e-05
-3.67947e-05
-4.43366e-05
-4.99124e-05
-3.58948e-05
-5.9715e-05
-2.51227e-05
-6.35099e-05
-1.35894e-05
-5.839e-05
-4.08198e-06
-4.23512e-05
-1.61072e-05
-2.22994e-06
1.48523e-05
-7.17405e-06
3.55394e-05
-1.33261e-05
4.80074e-05
-1.96885e-05
5.39357e-05
-2.57302e-05
5.50333e-05
-3.1233e-05
5.26207e-05
-3.6154e-05
4.75737e-05
-4.0525e-05
4.03995e-05
-4.43816e-05
3.13437e-05
-4.77097e-05
2.04995e-05
-5.03983e-05
7.90908e-06
-5.21957e-05
-6.32925e-06
-5.26733e-05
-2.19314e-05
-5.12194e-05
-3.82486e-05
-4.71123e-05
-5.40195e-05
-3.97513e-05
-6.70759e-05
-2.91337e-05
-7.41275e-05
-1.65643e-05
-7.09595e-05
-5.26134e-06
-5.36541e-05
-2.13685e-05
-2.52216e-06
1.73745e-05
-7.77469e-06
4.0792e-05
-1.38571e-05
5.40899e-05
-1.96724e-05
5.97509e-05
-2.47729e-05
6.01338e-05
-2.90924e-05
5.69403e-05
-3.27515e-05
5.12328e-05
-3.59387e-05
4.35866e-05
-3.88379e-05
3.4243e-05
-4.15777e-05
2.32393e-05
-4.41836e-05
1.0515e-05
-4.65221e-05
-3.99078e-06
-4.82335e-05
-2.02201e-05
-4.8666e-05
-3.78161e-05
-4.68635e-05
-5.5822e-05
-4.17184e-05
-7.2221e-05
-3.24728e-05
-8.33731e-05
-1.97258e-05
-8.37065e-05
-6.75649e-06
-6.66235e-05
-2.8125e-05
-3.08976e-06
2.04643e-05
-8.81474e-06
4.65169e-05
-1.46408e-05
5.99159e-05
-1.942e-05
6.45301e-05
-2.29102e-05
6.3624e-05
-2.52972e-05
5.93273e-05
-2.69288e-05
5.28644e-05
-2.81858e-05
4.48436e-05
-2.94211e-05
3.54782e-05
-3.09248e-05
2.47429e-05
-3.28899e-05
1.24801e-05
-3.53587e-05
-1.52196e-06
-3.81362e-05
-1.74426e-05
-4.06643e-05
-3.5288e-05
-4.18926e-05
-5.45936e-05
-4.02617e-05
-7.38518e-05
-3.40744e-05
-8.95605e-05
-2.26657e-05
-9.51152e-05
-8.61174e-06
-8.06774e-05
-3.67367e-05
-4.1999e-06
2.46642e-05
-1.06201e-05
5.29371e-05
-1.57942e-05
6.509e-05
-1.87418e-05
6.74777e-05
-1.96694e-05
6.45516e-05
-1.91631e-05
5.8821e-05
-1.78675e-05
5.15688e-05
-1.63754e-05
4.33516e-05
-1.52024e-05
3.43052e-05
-1.47865e-05
2.4327e-05
-1.54836e-05
1.31773e-05
-1.75353e-05
5.29728e-07
-2.09868e-05
-1.3991e-05
-2.55288e-05
-3.07461e-05
-3.02504e-05
-4.9872e-05
-3.33776e-05
-7.07246e-05
-3.22974e-05
-9.06407e-05
-2.45495e-05
-0.000102863
-1.07851e-05
-9.44419e-05
-4.75218e-05
-6.24592e-06
3.09101e-05
-1.34036e-05
6.00948e-05
-1.69219e-05
6.86083e-05
-1.66356e-05
6.71915e-05
-1.36259e-05
6.15419e-05
-9.05044e-06
5.42455e-05
-3.8836e-06
4.64019e-05
1.10128e-06
3.83667e-05
5.28478e-06
3.01217e-05
8.1452e-06
2.14666e-05
9.22194e-06
1.21005e-05
8.10936e-06
1.64231e-06
4.50591e-06
-1.03876e-05
-1.64733e-06
-2.45928e-05
-9.86102e-06
-4.16583e-05
-1.85908e-05
-6.19949e-05
-2.4707e-05
-8.45245e-05
-2.37448e-05
-0.000103825
-1.29112e-05
-0.000105275
-6.0433e-05
-9.55995e-06
4.047e-05
-1.6424e-05
6.69589e-05
-1.58187e-05
6.8003e-05
-9.88735e-06
6.12601e-05
-1.12477e-06
5.27793e-05
8.7037e-06
4.44171e-05
1.84181e-05
3.66875e-05
2.72216e-05
2.95632e-05
3.45374e-05
2.28059e-05
3.98907e-05
1.61133e-05
4.28316e-05
9.1596e-06
4.2892e-05
1.58192e-06
3.95841e-05
-7.07964e-06
3.24637e-05
-1.74724e-05
2.13743e-05
-3.0569e-05
7.05018e-06
-4.76707e-05
-7.76953e-06
-6.97047e-05
-1.72109e-05
-9.43839e-05
-1.37604e-05
-0.000108726
-7.41935e-05
-1.34282e-05
5.38982e-05
-1.50775e-05
6.86082e-05
-5.09481e-06
5.80202e-05
9.81232e-06
4.6353e-05
2.58414e-05
3.67503e-05
4.12086e-05
2.90498e-05
5.50341e-05
2.2862e-05
6.68539e-05
1.77434e-05
7.63796e-05
1.32802e-05
8.336e-05
9.13285e-06
8.75008e-05
5.01878e-06
8.84101e-05
6.72693e-07
8.55624e-05
-4.23197e-06
7.82518e-05
-1.01619e-05
6.56499e-05
-1.79671e-05
4.7177e-05
-2.91978e-05
2.37872e-05
-4.63149e-05
7.08769e-07
-7.13054e-05
-1.02163e-05
-9.78008e-05
-8.44098e-05
-9.40659e-06
6.33048e-05
8.82346e-06
5.03781e-05
3.51801e-05
3.16636e-05
6.00325e-05
2.15006e-05
8.14773e-05
1.53055e-05
9.94436e-05
1.10835e-05
0.00011419
8.11547e-06
0.000126001
5.93288e-06
0.00013508
4.20105e-06
0.000141512
2.70062e-06
0.000145247
1.28424e-06
0.000146077
-1.57479e-07
0.000143612
-1.76681e-06
0.00013715
-3.69998e-06
0.00012552
-6.33743e-06
0.000106873
-1.0551e-05
7.90602e-05
-1.85019e-05
4.22826e-05
-3.45278e-05
6.89477e-06
-6.24129e-05
-7.7515e-05
6.33048e-05
0.000113683
0.000145347
0.000166847
0.000182153
0.000193236
0.000201352
0.000207284
0.000211485
0.000214186
0.00021547
0.000215313
0.000213546
0.000209846
0.000203509
0.000192958
0.000174456
0.000139928
7.7515e-05
)
;

boundaryField
{
    movingWall
    {
        type            calculated;
        value           uniform 0;
    }
    fixedWalls
    {
        type            calculated;
        value           uniform 0;
    }
    frontAndBack
    {
        type            empty;
        value           nonuniform List<scalar> 0();
    }
}


// ************************************************************************* //
