/*--------------------------------*- C++ -*----------------------------------*\
  =========                 |
  \\      /  F ield         | OpenFOAM: The Open Source CFD Toolbox
   \\    /   O peration     | Website:  https://openfoam.org
    \\  /    A nd           | Version:  8
     \\/     M anipulation  |
\*---------------------------------------------------------------------------*/
FoamFile
{
    version     2.0;
    format      ascii;
    class       volVectorField;
    location    "1";
    object      U;
}
// * * * * * * * * * * * * * * * * * * * * * * * * * * * * * * * * * * * * * //

dimensions      [0 1 -1 0 0 0 0];

internalField   nonuniform List<vector> 
400
(
(0.00120474 -0.00120689 0)
(0.000402904 0.000673542 0)
(-0.00644995 0.00286756 0)
(-0.0179667 0.00434043 0)
(-0.032172 0.00506911 0)
(-0.0472937 0.00518529 0)
(-0.0618268 0.00480581 0)
(-0.0744895 0.00400724 0)
(-0.0841681 0.00283729 0)
(-0.0899052 0.00134554 0)
(-0.0909583 -0.000383525 0)
(-0.086922 -0.00220701 0)
(-0.0778793 -0.00391626 0)
(-0.0645362 -0.00525256 0)
(-0.0482857 -0.00594579 0)
(-0.0311476 -0.00577309 0)
(-0.0155459 -0.00462862 0)
(-0.00390939 -0.00259431 0)
(0.00189167 -8.67355e-05 0)
(0.00157707 0.00152432 0)
(-0.000622541 -0.000510817 0)
(-0.00896191 0.00883998 0)
(-0.030053 0.0184024 0)
(-0.0603797 0.0249838 0)
(-0.0959728 0.0282369 0)
(-0.133158 0.0284675 0)
(-0.168524 0.026072 0)
(-0.199019 0.0213966 0)
(-0.221989 0.0147496 0)
(-0.235238 0.00649891 0)
(-0.237177 -0.00281643 0)
(-0.227065 -0.0124086 0)
(-0.205283 -0.0212335 0)
(-0.173551 -0.028075 0)
(-0.135004 -0.0317257 0)
(-0.0940123 -0.0312519 0)
(-0.0556655 -0.0263032 0)
(-0.0249191 -0.0174117 0)
(-0.00569978 -0.00641491 0)
(0.000312434 0.00208266 0)
(-0.00307491 0.00649746 0)
(-0.0201033 0.0303295 0)
(-0.0555732 0.052072 0)
(-0.102981 0.0668966 0)
(-0.156645 0.0739904 0)
(-0.211681 0.0737816 0)
(-0.26346 0.0670291 0)
(-0.307776 0.0545277 0)
(-0.340965 0.0371076 0)
(-0.360022 0.0158028 0)
(-0.362809 -0.00794479 0)
(-0.34836 -0.0321514 0)
(-0.317202 -0.0543007 0)
(-0.271633 -0.0715451 0)
(-0.215809 -0.0811152 0)
(-0.155553 -0.0809136 0)
(-0.0977011 -0.0702086 0)
(-0.0490413 -0.0502753 0)
(-0.0155784 -0.0250298 0)
(-0.00167168 -0.00260531 0)
(-0.00527144 0.0195487 0)
(-0.0305658 0.0642302 0)
(-0.0798692 0.101418 0)
(-0.14324 0.125942 0)
(-0.213193 0.137007 0)
(-0.283871 0.135362 0)
(-0.349812 0.122242 0)
(-0.406058 0.099 0)
(-0.448287 0.0671238 0)
(-0.472929 0.0284895 0)
(-0.477392 -0.0143406 0)
(-0.460387 -0.0579213 0)
(-0.422313 -0.097944 0)
(-0.3656 -0.129551 0)
(-0.294916 -0.147988 0)
(-0.217074 -0.14957 0)
(-0.140403 -0.132834 0)
(-0.073613 -0.0995952 0)
(-0.0253377 -0.0557508 0)
(-0.00346074 -0.0125721 0)
(-0.00717232 0.0379652 0)
(-0.0400177 0.109523 0)
(-0.102237 0.165023 0)
(-0.180466 0.200186 0)
(-0.265412 0.214954 0)
(-0.350367 0.210785 0)
(-0.429272 0.189586 0)
(-0.496689 0.153357 0)
(-0.547868 0.104296 0)
(-0.578804 0.0451541 0)
(-0.586431 -0.0203512 0)
(-0.568956 -0.0872447 0)
(-0.526297 -0.14928 0)
(-0.460564 -0.199316 0)
(-0.376475 -0.23017 0)
(-0.281519 -0.235975 0)
(-0.185494 -0.213873 0)
(-0.0994039 -0.165634 0)
(-0.0352296 -0.0987587 0)
(-0.00510973 -0.0275221 0)
(-0.00883533 0.0611536 0)
(-0.0484926 0.165305 0)
(-0.122534 0.241934 0)
(-0.21441 0.288649 0)
(-0.313128 0.306879 0)
(-0.411254 0.299263 0)
(-0.502328 0.268624 0)
(-0.580648 0.217709 0)
(-0.64122 0.149407 0)
(-0.679692 0.0672598 0)
(-0.692475 -0.0239727 0)
(-0.677055 -0.117873 0)
(-0.632489 -0.206233 0)
(-0.560064 -0.279391 0)
(-0.464025 -0.327208 0)
(-0.352149 -0.340783 0)
(-0.235657 -0.314825 0)
(-0.128265 -0.250096 0)
(-0.0462014 -0.155181 0)
(-0.0068726 -0.0476219 0)
(-0.0103006 0.0885904 0)
(-0.0560348 0.23057 0)
(-0.140676 0.330967 0)
(-0.244784 0.390116 0)
(-0.355842 0.411664 0)
(-0.465856 0.399936 0)
(-0.568171 0.358956 0)
(-0.657053 0.292296 0)
(-0.727456 0.203466 0)
(-0.774805 0.096604 0)
(-0.794983 -0.0227482 0)
(-0.784582 -0.146987 0)
(-0.74143 -0.26608 0)
(-0.665434 -0.36771 0)
(-0.55969 -0.43821 0)
(-0.431642 -0.464571 0)
(-0.293623 -0.437578 0)
(-0.162356 -0.355489 0)
(-0.0594072 -0.227107 0)
(-0.00904726 -0.0736593 0)
(-0.0115879 0.11978 0)
(-0.0626535 0.304228 0)
(-0.156526 0.430695 0)
(-0.271134 0.503004 0)
(-0.392631 0.527748 0)
(-0.512668 0.511481 0)
(-0.624654 0.459729 0)
(-0.723099 0.376974 0)
(-0.803181 0.267225 0)
(-0.860313 0.134935 0)
(-0.889967 -0.0139786 0)
(-0.887791 -0.171174 0)
(-0.850107 -0.325156 0)
(-0.774872 -0.461027 0)
(-0.663189 -0.561134 0)
(-0.521179 -0.607143 0)
(-0.361485 -0.583938 0)
(-0.203748 -0.484981 0)
(-0.0760749 -0.317663 0)
(-0.0119619 -0.107098 0)
(-0.0127175 0.154233 0)
(-0.0683765 0.385114 0)
(-0.169967 0.539433 0)
(-0.292923 0.625251 0)
(-0.422239 0.652892 0)
(-0.549463 0.631741 0)
(-0.668391 0.569175 0)
(-0.774147 0.470675 0)
(-0.862504 0.340618 0)
(-0.929227 0.183425 0)
(-0.969676 0.00486209 0)
(-0.978722 -0.186638 0)
(-0.951099 -0.378771 0)
(-0.882352 -0.554497 0)
(-0.770638 -0.692048 0)
(-0.619357 -0.766636 0)
(-0.439938 -0.754839 0)
(-0.254088 -0.641947 0)
(-0.0974648 -0.430918 0)
(-0.0159986 -0.150107 0)
(-0.0137573 0.191503 0)
(-0.0733944 0.472041 0)
(-0.181125 0.655208 0)
(-0.309788 0.754143 0)
(-0.443344 0.783856 0)
(-0.573557 0.757276 0)
(-0.695034 0.68404 0)
(-0.803979 0.570761 0)
(-0.897261 0.422056 0)
(-0.971521 0.241956 0)
(-1.02253 0.0354845 0)
(-1.04485 -0.189664 0)
(-1.03187 -0.421358 0)
(-0.976544 -0.641371 0)
(-0.873227 -0.824311 0)
(-0.720868 -0.938293 0)
(-0.527295 -0.949046 0)
(-0.314157 -0.829052 0)
(-0.124856 -0.571569 0)
(-0.0216452 -0.205605 0)
(-0.0149026 0.231334 0)
(-0.0782988 0.563989 0)
(-0.190723 0.775798 0)
(-0.321925 0.886167 0)
(-0.454932 0.916081 0)
(-0.582181 0.882911 0)
(-0.699661 0.799038 0)
(-0.805244 0.67237 0)
(-0.897505 0.507686 0)
(-0.974625 0.30831 0)
(-1.03353 0.077931 0)
(-1.06924 -0.177406 0)
(-1.07453 -0.447031 0)
(-1.04008 -0.713079 0)
(-0.955977 -0.947966 0)
(-0.815 -1.11311 0)
(-0.618165 -1.16138 0)
(-0.383182 -1.04677 0)
(-0.1595 -0.744349 0)
(-0.0295752 -0.277355 0)
(-0.0166129 0.274003 0)
(-0.0844403 0.660474 0)
(-0.200532 0.898847 0)
(-0.33049 1.01685 0)
(-0.456604 1.04336 0)
(-0.572749 1.00131 0)
(-0.677103 0.906363 0)
(-0.769927 0.767884 0)
(-0.852178 0.590761 0)
(-0.9243 0.377381 0)
(-0.985236 0.129629 0)
(-1.03153 -0.148963 0)
(-1.05648 -0.450611 0)
(-1.04958 -0.759913 0)
(-0.996988 -1.04966 0)
(-0.884162 -1.27668 0)
(-0.701758 -1.38057 0)
(-0.457699 -1.29113 0)
(-0.202437 -0.952949 0)
(-0.0407603 -0.37011 0)
(-0.0198513 0.320965 0)
(-0.0944462 0.76212 0)
(-0.213821 1.02192 0)
(-0.337747 1.14044 0)
(-0.448428 1.15736 0)
(-0.542571 1.10255 0)
(-0.621713 0.995341 0)
(-0.689358 0.846615 0)
(-0.749509 0.661289 0)
(-0.805509 0.440678 0)
(-0.859113 0.184602 0)
(-0.909496 -0.106521 0)
(-0.952016 -0.429071 0)
(-0.976773 -0.772458 0)
(-0.967606 -1.11346 0)
(-0.902845 -1.40865 0)
(-0.759944 -1.58708 0)
(-0.529776 -1.55064 0)
(-0.253988 -1.19806 0)
(-0.0565893 -0.489812 0)
(-0.0265037 0.37599 0)
(-0.112902 0.871308 0)
(-0.235471 1.14218 0)
(-0.346284 1.24911 0)
(-0.429445 1.24689 0)
(-0.487013 1.17358 0)
(-0.525564 1.05222 0)
(-0.552783 0.894881 0)
(-0.576215 0.706233 0)
(-0.602436 0.486432 0)
(-0.636447 0.233234 0)
(-0.680882 -0.0561871 0)
(-0.734653 -0.383103 0)
(-0.790812 -0.743744 0)
(-0.833844 -1.12301 0)
(-0.837421 -1.48373 0)
(-0.765268 -1.75158 0)
(-0.58433 -1.80234 0)
(-0.312415 -1.47387 0)
(-0.0788458 -0.643512 0)
(-0.0400041 0.447052 0)
(-0.146903 0.992405 0)
(-0.270642 1.25488 0)
(-0.355526 1.33106 0)
(-0.392794 1.29639 0)
(-0.394146 1.19755 0)
(-0.373301 1.06026 0)
(-0.342879 0.896683 0)
(-0.314006 0.710588 0)
(-0.296218 0.500776 0)
(-0.297502 0.26318 0)
(-0.324035 -0.00781955 0)
(-0.379158 -0.318147 0)
(-0.461095 -0.671708 0)
(-0.558966 -1.06495 0)
(-0.647005 -1.47472 0)
(-0.679044 -1.8355 0)
(-0.595002 -2.00808 0)
(-0.370501 -1.76243 0)
(-0.108905 -0.838408 0)
(-0.0657113 0.549452 0)
(-0.204738 1.13008 0)
(-0.31834 1.34896 0)
(-0.351037 1.36654 0)
(-0.313262 1.28363 0)
(-0.232425 1.15319 0)
(-0.130998 1.00052 0)
(-0.0262713 0.835562 0)
(0.0680763 0.659889 0)
(0.140848 0.470573 0)
(0.182357 0.26209 0)
(0.183909 0.0270342 0)
(0.138109 -0.243761 0)
(0.040472 -0.560782 0)
(-0.10656 -0.933073 0)
(-0.285247 -1.35801 0)
(-0.449414 -1.79464 0)
(-0.517729 -2.11258 0)
(-0.40774 -2.02667 0)
(-0.144206 -1.08067 0)
(-0.108535 0.712091 0)
(-0.286048 1.28067 0)
(-0.348929 1.39348 0)
(-0.276081 1.31794 0)
(-0.119733 1.17503 0)
(0.0729664 1.01421 0)
(0.272887 0.853873 0)
(0.461236 0.69809 0)
(0.624897 0.544506 0)
(0.753784 0.388065 0)
(0.838943 0.222321 0)
(0.871347 0.0394833 0)
(0.841412 -0.170459 0)
(0.739304 -0.421194 0)
(0.557317 -0.731233 0)
(0.297791 -1.11991 0)
(-0.00900963 -1.58546 0)
(-0.281502 -2.04295 0)
(-0.376015 -2.2003 0)
(-0.167766 -1.37358 0)
(-0.155409 0.978374 0)
(-0.340051 1.40033 0)
(-0.237069 1.30633 0)
(0.0334923 1.11466 0)
(0.355055 0.92368 0)
(0.674811 0.754243 0)
(0.969783 0.6086 0)
(1.22808 0.481849 0)
(1.44288 0.367061 0)
(1.60926 0.257467 0)
(1.72208 0.146709 0)
(1.77471 0.0282262 0)
(1.75822 -0.106061 0)
(1.66038 -0.268156 0)
(1.46533 -0.478155 0)
(1.15681 -0.768807 0)
(0.731171 -1.18055 0)
(0.228166 -1.71318 0)
(-0.173244 -2.15924 0)
(-0.118896 -1.6748 0)
(-0.0475262 1.26938 0)
(-0.071998 1.31676 0)
(0.411483 0.968891 0)
(0.958226 0.709499 0)
(1.42952 0.529307 0)
(1.82313 0.398394 0)
(2.14922 0.301118 0)
(2.41412 0.226116 0)
(2.62261 0.16457 0)
(2.77772 0.1101 0)
(2.87993 0.0579957 0)
(2.92679 0.00427793 0)
(2.91257 -0.0552934 0)
(2.82681 -0.127347 0)
(2.65166 -0.224368 0)
(2.35824 -0.373257 0)
(1.90167 -0.630334 0)
(1.22445 -1.07911 0)
(0.452789 -1.68839 0)
(0.217477 -1.70163 0)
(1.43818 0.707158 0)
(1.8356 0.626541 0)
(2.56321 0.398253 0)
(3.13727 0.251649 0)
(3.51165 0.164243 0)
(3.76883 0.10942 0)
(3.95638 0.0739956 0)
(4.09474 0.050233 0)
(4.19487 0.0331179 0)
(4.26323 0.0195204 0)
(4.30289 0.00749127 0)
(4.31437 -0.00430719 0)
(4.29581 -0.0169537 0)
(4.24244 -0.0321711 0)
(4.14447 -0.0531754 0)
(3.98073 -0.0879763 0)
(3.70202 -0.158346 0)
(3.17399 -0.316137 0)
(2.29927 -0.622701 0)
(1.66808 -0.77979 0)
)
;

boundaryField
{
    movingWall
    {
        type            fixedValue;
        value           uniform (5.07358 0 0);
    }
    fixedWalls
    {
        type            noSlip;
    }
    frontAndBack
    {
        type            empty;
    }
}


// ************************************************************************* //
