/*--------------------------------*- C++ -*----------------------------------*\
| =========                 |                                                 |
| \\      /  F ield         | OpenFOAM: The Open Source CFD Toolbox           |
|  \\    /   O peration     | Version:  2212                                  |
|   \\  /    A nd           | Website:  www.openfoam.com                      |
|    \\/     M anipulation  |                                                 |
\*---------------------------------------------------------------------------*/
FoamFile
{
    version     2.0;
    format      ascii;
    arch        "LSB;label=32;scalar=64";
    class       volVectorField;
    location    "0.1";
    object      U;
}
// * * * * * * * * * * * * * * * * * * * * * * * * * * * * * * * * * * * * * //

dimensions      [0 1 -1 0 0 0 0];

internalField   nonuniform List<vector> 
44
(
(0.0717555 0 0)
(0.0752673 0 0)
(0.0770295 0 0)
(0.0770251 0 0)
(0.0920013 0 0)
(0.0964262 0 0)
(0.0986431 0 0)
(0.0986404 0 0)
(0.0964175 0 0)
(0.0919893 0 0)
(0.11654 0 0)
(0.122019 0 0)
(0.124758 0 0)
(0.124756 0 0)
(0.122013 0 0)
(0.116533 0 0)
(0.146147 0 0)
(0.152816 0 0)
(0.156141 0 0)
(0.15614 0 0)
(0.152813 0 0)
(0.146144 0 0)
(0.181648 0 0)
(0.189619 0 0)
(0.19358 0 0)
(0.193579 0 0)
(0.189619 0 0)
(0.181647 0 0)
(0.223905 0 0)
(0.233237 0 0)
(0.237852 0 0)
(0.237852 0 0)
(0.233238 0 0)
(0.223907 0 0)
(0.27379 0 0)
(0.284444 0 0)
(0.289685 0 0)
(0.289686 0 0)
(0.284448 0 0)
(0.273794 0 0)
(0.34969 0 0)
(0.349691 0 0)
(0.343935 0 0)
(0.332146 0 0)
)
;

boundaryField
{
    movingWall
    {
        type            fixedValue;
        value           nonuniform List<vector> 0();
    }
    fixedWalls
    {
        type            noSlip;
    }
    frontAndBack
    {
        type            empty;
    }
    procBoundary4to0
    {
        type            processor;
        value           uniform (0.0665353 0 0);
    }
    procBoundary4to1
    {
        type            processor;
        value           nonuniform List<vector> 7((0.0550855 0 0) (0.0578172 0 0) (0.0591902 0 0) (0.0591884 0 0) (0.0752581 0 0) (0.0752581 0 0) (0.0717438 0 0));
    }
    procBoundary4to3
    {
        type            processor;
        value           nonuniform List<vector> 6((0.0854035 0 0) (0.108341 0 0) (0.13612 0 0) (0.16959 0 0) (0.209683 0 0) (0.2574 0 0));
    }
    procBoundary4to5
    {
        type            processor;
        value           nonuniform List<vector> 6((0.0853941 0 0) (0.108335 0 0) (0.136117 0 0) (0.169591 0 0) (0.209686 0 0) (0.257405 0 0));
    }
    procBoundary4to7
    {
        type            processor;
        value           nonuniform List<vector> 7((0.332147 0 0) (0.343933 0 0) (0.343933 0 0) (0.418288 0 0) (0.418287 0 0) (0.412218 0 0) (0.399689 0 0));
    }
    procBoundary4to8
    {
        type            processor;
        value           uniform (0.313802 0 0);
    }
}


// ************************************************************************* //
