/*--------------------------------*- C++ -*----------------------------------*\
  =========                 |
  \\      /  F ield         | OpenFOAM: The Open Source CFD Toolbox
   \\    /   O peration     | Website:  https://openfoam.org
    \\  /    A nd           | Version:  9
     \\/     M anipulation  |
\*---------------------------------------------------------------------------*/
FoamFile
{
    format      ascii;
    class       volVectorField;
    location    "0.1";
    object      U;
}
// * * * * * * * * * * * * * * * * * * * * * * * * * * * * * * * * * * * * * //

dimensions      [0 1 -1 0 0 0 0];

internalField   nonuniform List<vector> 
40
(
(-0.0464102 -0.00482369 0)
(-0.03128 -0.0048409 0)
(-0.0169914 -0.00399859 0)
(-0.0057818 -0.00234622 0)
(0.000597167 -0.000287714 0)
(0.00117421 0.00116172 0)
(-0.133895 -0.0278984 0)
(-0.0962272 -0.0284409 0)
(-0.0596816 -0.0249425 0)
(-0.0289696 -0.0176516 0)
(-0.00821746 -0.00806879 0)
(-0.000341323 0.000612336 0)
(-0.214618 -0.0730869 0)
(-0.158408 -0.0753448 0)
(-0.102627 -0.0679777 0)
(-0.053757 -0.0515064 0)
(-0.018299 -0.0288941 0)
(-0.00225215 -0.00571312 0)
(-0.289732 -0.134757 0)
(-0.217269 -0.140467 0)
(-0.143775 -0.129382 0)
(-0.077461 -0.101845 0)
(-0.0275472 -0.0618485 0)
(-0.00380996 -0.01712 0)
(-0.364043 -0.210315 0)
(-0.276332 -0.221878 0)
(-0.185357 -0.207885 0)
(-0.101246 -0.168017 0)
(-0.0364955 -0.106468 0)
(-0.0051527 -0.0330484 0)
(-0.441838 -0.298881 0)
(-0.339388 -0.31947 0)
(-0.230442 -0.304305 0)
(-0.127317 -0.250987 0)
(-0.0462922 -0.163343 0)
(-0.00661275 -0.0534747 0)
(-0.282074 -0.419751 0)
(-0.157935 -0.352682 0)
(-0.0581973 -0.234237 0)
(-0.00852017 -0.0791754 0)
)
;

boundaryField
{
    movingWall
    {
        type            fixedValue;
        value           nonuniform List<vector> 0();
    }
    fixedWalls
    {
        type            noSlip;
    }
    frontAndBack
    {
        type            empty;
    }
    procBoundary7to5
    {
        type            processor;
        value           nonuniform List<vector> 6((-0.0600359 -0.00411336 0) (-0.167023 -0.0237631 0) (-0.262633 -0.061934 0) (-0.350129 -0.113392 0) (-0.435277 -0.175361 0) (-0.522326 -0.246333 0));
    }
    procBoundary7to8
    {
        type            processor;
        value           nonuniform List<vector> 7((-0.519504 -0.394927 0) (-0.404761 -0.428628 0) (-0.404761 -0.428628 0) (-0.33807 -0.549336 0) (-0.192852 -0.470483 0) (-0.0725697 -0.318816 0) (-0.0110894 -0.110795 0));
    }
}


// ************************************************************************* //
