/*--------------------------------*- C++ -*----------------------------------*\
  =========                 |
  \\      /  F ield         | OpenFOAM: The Open Source CFD Toolbox
   \\    /   O peration     | Website:  https://openfoam.org
    \\  /    A nd           | Version:  9
     \\/     M anipulation  |
\*---------------------------------------------------------------------------*/
FoamFile
{
    format      ascii;
    class       surfaceScalarField;
    location    "0.065";
    object      phi;
}
// * * * * * * * * * * * * * * * * * * * * * * * * * * * * * * * * * * * * * //

dimensions      [0 3 -1 0 0 0 0];

internalField   nonuniform List<scalar> 
67
(
-2.16165e-06
-6.96388e-07
-1.4219e-06
-7.3975e-07
-7.3839e-07
-6.83508e-07
-2.18304e-07
-5.20087e-07
4.35797e-08
-2.61883e-07
4.35799e-08
-5.55933e-06
-2.24449e-06
-3.90834e-06
-2.39074e-06
-2.34853e-06
-2.24331e-06
-1.07495e-06
-1.79367e-06
-2.4984e-07
-1.08699e-06
-2.0626e-07
-8.49505e-06
-4.43501e-06
-6.13865e-06
-4.74714e-06
-3.86472e-06
-4.51724e-06
-1.92716e-06
-3.73123e-06
-5.50427e-07
-2.46372e-06
-7.56686e-07
-1.12662e-05
-7.19788e-06
-8.25725e-06
-7.75614e-06
-5.30242e-06
-7.47207e-06
-2.71661e-06
-6.31704e-06
-8.10164e-07
-4.37017e-06
-1.56685e-06
-1.4045e-05
-1.04974e-05
-1.03895e-05
-1.14116e-05
-6.73922e-06
-1.11224e-05
-3.4937e-06
-9.56256e-06
-1.05563e-06
-6.80823e-06
-2.62248e-06
-1.70078e-05
-1.26951e-05
-8.31e-06
-1.55074e-05
-4.33511e-06
-1.35374e-05
-1.31579e-06
-9.82755e-06
-3.93827e-06
-1.01603e-05
-5.3466e-06
-1.63036e-06
)
;

boundaryField
{
    movingWall
    {
        type            calculated;
        value           nonuniform List<scalar> 0();
    }
    fixedWalls
    {
        type            calculated;
        value           uniform 0;
    }
    frontAndBack
    {
        type            empty;
        value           nonuniform List<scalar> 0();
    }
    procBoundary7to5
    {
        type            processor;
        value           nonuniform List<scalar> 6(2.85804e-06 7.10743e-06 1.06856e-05 1.40291e-05 1.73445e-05 2.082e-05);
    }
    procBoundary7to8
    {
        type            processor;
        value           nonuniform List<scalar> 7(-1.43097e-05 -1.57243e-05 1.53726e-05 -2.07196e-05 -1.83512e-05 -1.35438e-05 -5.56864e-06);
    }
}


// ************************************************************************* //
