/*--------------------------------*- C++ -*----------------------------------*\
  =========                 |
  \\      /  F ield         | OpenFOAM: The Open Source CFD Toolbox
   \\    /   O peration     | Website:  https://openfoam.org
    \\  /    A nd           | Version:  9
     \\/     M anipulation  |
\*---------------------------------------------------------------------------*/
FoamFile
{
    format      ascii;
    class       volVectorField;
    location    "0.07";
    object      U;
}
// * * * * * * * * * * * * * * * * * * * * * * * * * * * * * * * * * * * * * //

dimensions      [0 1 -1 0 0 0 0];

internalField   nonuniform List<vector> 
40
(
(-0.897078 0.0593126 0)
(-0.917628 -0.143362 0)
(-0.912882 -0.357723 0)
(-0.876445 -0.572006 0)
(-0.88507 0.0925661 0)
(-0.912684 -0.130413 0)
(-0.921303 -0.37115 0)
(-0.903403 -0.619947 0)
(-0.809369 0.128143 0)
(-0.840491 -0.107541 0)
(-0.862538 -0.366906 0)
(-0.868176 -0.643938 0)
(-0.646477 0.159785 0)
(-0.675085 -0.0775502 0)
(-0.708178 -0.34328 0)
(-0.740055 -0.636416 0)
(-0.370096 0.179391 0)
(-0.388344 -0.0459672 0)
(-0.42743 -0.301448 0)
(-0.485045 -0.592309 0)
(0.0507278 0.178322 0)
(0.0494299 -0.0195383 0)
(0.0106736 -0.245442 0)
(-0.0682079 -0.510358 0)
(0.652769 0.151005 0)
(0.670906 -0.0039363 0)
(0.637183 -0.181089 0)
(0.544387 -0.394086 0)
(1.48054 0.099458 0)
(1.51142 -0.000896197 0)
(1.48356 -0.114698 0)
(1.38663 -0.254381 0)
(2.57517 0.0387044 0)
(2.60223 -0.00599711 0)
(2.57746 -0.0558951 0)
(2.49113 -0.118158 0)
(3.92765 0.00452081 0)
(3.93263 -0.00487153 0)
(3.9128 -0.0150226 0)
(3.86392 -0.0278258 0)
)
;

boundaryField
{
    movingWall
    {
        type            fixedValue;
        value           uniform (4.67006 0 0);
    }
    fixedWalls
    {
        type            noSlip;
    }
    frontAndBack
    {
        type            empty;
    }
    procBoundary6to3
    {
        type            processor;
        value           nonuniform List<vector> 5((-0.843774 0.237783 0) (-0.831771 0.286159 0) (-0.763103 0.330291 0) (-0.616775 0.362164 0) (-0.367337 0.371274 0));
    }
    procBoundary6to4
    {
        type            processor;
        value           nonuniform List<vector> 5((0.0174977 0.348086 0) (0.58064 0.286746 0) (1.3773 0.189812 0) (2.46335 0.0806202 0) (3.8388 0.0139952 0));
    }
    procBoundary6to5
    {
        type            processor;
        value           nonuniform List<vector> 4((-0.851504 0.029932 0) (-0.86286 -0.144631 0) (-0.84647 -0.32512 0) (-0.797321 -0.499695 0));
    }
    procBoundary6to8
    {
        type            processor;
        value           nonuniform List<vector> 4((-0.786382 -0.753153 0) (-0.83402 -0.842934 0) (-0.831227 -0.907479 0) (-0.747104 -0.932683 0));
    }
    procBoundary6to9
    {
        type            processor;
        value           nonuniform List<vector> 6((-0.544838 -0.904431 0) (-0.183861 -0.812077 0) (0.377982 -0.651811 0) (1.1852 -0.433807 0) (2.28759 -0.202965 0) (3.71576 -0.0461131 0));
    }
}


// ************************************************************************* //
