/*--------------------------------*- C++ -*----------------------------------*\
  =========                 |
  \\      /  F ield         | OpenFOAM: The Open Source CFD Toolbox
   \\    /   O peration     | Website:  https://openfoam.org
    \\  /    A nd           | Version:  9
     \\/     M anipulation  |
\*---------------------------------------------------------------------------*/
FoamFile
{
    format      ascii;
    class       volScalarField;
    location    "0.05";
    object      p;
}
// * * * * * * * * * * * * * * * * * * * * * * * * * * * * * * * * * * * * * //

dimensions      [0 2 -2 0 0 0 0];

internalField   nonuniform List<scalar> 
40
(
-0.0105893
0.0093684
-0.0557255
-0.0385652
-0.0219662
-0.0104228
-0.00434671
-0.00344242
-0.102951
-0.0898939
-0.0789062
-0.0739197
-0.0743511
-0.0780488
-0.152196
-0.145225
-0.139154
-0.139274
-0.143285
-0.147486
-0.213331
-0.208749
-0.204837
-0.204632
-0.205902
-0.206303
-0.282944
-0.282169
-0.27627
-0.267183
-0.25645
-0.250774
-0.372592
-0.365563
-0.330588
-0.301919
-0.279395
-0.275304
-0.46871
-0.430907
)
;

boundaryField
{
    movingWall
    {
        type            zeroGradient;
    }
    fixedWalls
    {
        type            zeroGradient;
    }
    frontAndBack
    {
        type            empty;
    }
    procBoundary8to5
    {
        type            processor;
        value           nonuniform List<scalar> 4(-0.0350461 -0.0773151 -0.122639 -0.170056);
    }
    procBoundary8to6
    {
        type            processor;
        value           nonuniform List<scalar> 4(-0.228902 -0.299502 -0.392961 -0.507148);
    }
    procBoundary8to7
    {
        type            processor;
        value           nonuniform List<scalar> 7(0.0234523 0.0432108 0.0234437 0.0234437 0.036494 0.0440312 0.0444207);
    }
    procBoundary8to9
    {
        type            processor;
        value           nonuniform List<scalar> 7(-0.40349 -0.361858 -0.310427 -0.286304 -0.567254 -0.40349 -0.524846);
    }
}


// ************************************************************************* //
