/*--------------------------------*- C++ -*----------------------------------*\
| =========                 |                                                 |
| \\      /  F ield         | OpenFOAM: The Open Source CFD Toolbox           |
|  \\    /   O peration     | Version:  2212                                  |
|   \\  /    A nd           | Website:  www.openfoam.com                      |
|    \\/     M anipulation  |                                                 |
\*---------------------------------------------------------------------------*/
FoamFile
{
    version     2.0;
    format      ascii;
    arch        "LSB;label=32;scalar=64";
    class       volVectorField;
    location    "0.4";
    object      U;
}
// * * * * * * * * * * * * * * * * * * * * * * * * * * * * * * * * * * * * * //

dimensions      [0 1 -1 0 0 0 0];

internalField   nonuniform List<vector> 
44
(
(0.00987193 0 0)
(0.0293365 0 0)
(0.047979 0 0)
(0.0653006 0 0)
(0.0808661 0 0)
(0.0120856 0 0)
(0.0359006 0 0)
(0.0586706 0 0)
(0.079772 0 0)
(0.0986749 0 0)
(0.114955 0 0)
(0.128294 0 0)
(0.0146565 0 0)
(0.043513 0 0)
(0.0710366 0 0)
(0.0964501 0 0)
(0.119115 0 0)
(0.138545 0 0)
(0.154393 0 0)
(0.017685 0 0)
(0.052462 0 0)
(0.0855185 0 0)
(0.115885 0 0)
(0.142802 0 0)
(0.165729 0 0)
(0.184317 0 0)
(0.0213078 0 0)
(0.0631349 0 0)
(0.102697 0 0)
(0.138777 0 0)
(0.170488 0 0)
(0.197265 0 0)
(0.218798 0 0)
(0.0257201 0 0)
(0.0760766 0 0)
(0.123364 0 0)
(0.166047 0 0)
(0.203121 0 0)
(0.234057 0 0)
(0.258668 0 0)
(0.198933 0 0)
(0.241901 0 0)
(0.277185 0 0)
(0.304859 0 0)
)
;

boundaryField
{
    movingWall
    {
        type            fixedValue;
        value           nonuniform List<vector> 0();
    }
    fixedWalls
    {
        type            noSlip;
    }
    frontAndBack
    {
        type            empty;
    }
    procBoundary3to0
    {
        type            processor;
        value           nonuniform List<vector> 8((0.00793874 0 0) (0.0235983 0 0) (0.0386151 0 0) (0.0525942 0 0) (0.0651862 0 0) (0.0943199 0 0) (0.0943199 0 0) (0.10538 0 0));
    }
    procBoundary3to4
    {
        type            processor;
        value           nonuniform List<vector> 6((0.138472 0 0) (0.166436 0 0) (0.198367 0 0) (0.234963 0 0) (0.276977 0 0) (0.325209 0 0));
    }
    procBoundary3to6
    {
        type            processor;
        value           nonuniform List<vector> 7((0.031218 0 0) (0.0920928 0 0) (0.148644 0 0) (0.148644 0 0) (0.239154 0 0) (0.288381 0 0) (0.32794 0 0));
    }
    procBoundary3to7
    {
        type            processor;
        value           uniform (0.3584 0 0);
    }
}


// ************************************************************************* //
