/*--------------------------------*- C++ -*----------------------------------*\
  =========                 |
  \\      /  F ield         | OpenFOAM: The Open Source CFD Toolbox
   \\    /   O peration     | Website:  https://openfoam.org
    \\  /    A nd           | Version:  9
     \\/     M anipulation  |
\*---------------------------------------------------------------------------*/
FoamFile
{
    format      ascii;
    class       surfaceScalarField;
    location    "0.065";
    object      phi;
}
// * * * * * * * * * * * * * * * * * * * * * * * * * * * * * * * * * * * * * //

dimensions      [0 3 -1 0 0 0 0];

internalField   nonuniform List<scalar> 
66
(
-4.37643e-05
3.81399e-06
-4.40919e-05
-6.14269e-06
-4.31641e-05
-1.67281e-05
-2.75779e-05
-4.33748e-05
5.2797e-06
-4.40764e-05
-5.44102e-06
-4.37738e-05
-1.70308e-05
-2.9236e-05
-3.98145e-05
6.63799e-06
-4.08097e-05
-4.44581e-06
-4.12284e-05
-1.66121e-05
-2.97604e-05
-3.19042e-05
7.55765e-06
-3.30005e-05
-3.34952e-06
-3.41472e-05
-1.54653e-05
-2.8893e-05
-1.83562e-05
7.66268e-06
-1.92936e-05
-2.41203e-06
-2.10604e-05
-1.36985e-05
-2.65421e-05
2.3697e-06
6.69223e-06
1.78766e-06
-1.82999e-06
-4.7057e-07
-1.14403e-05
-2.26568e-05
3.19319e-05
4.71995e-06
3.17401e-05
-1.63822e-06
2.90991e-05
-8.79929e-06
-1.73596e-05
7.22905e-05
2.29346e-06
7.21656e-05
-1.51331e-06
6.90924e-05
-5.72614e-06
-1.08922e-05
0.000125267
4.40423e-07
0.000124658
-9.04611e-07
0.000121269
-2.33721e-06
-4.12049e-06
0.00019408
0.000193175
0.000190838
)
;

boundaryField
{
    movingWall
    {
        type            calculated;
        value           uniform 0;
    }
    fixedWalls
    {
        type            calculated;
        value           nonuniform List<scalar> 0();
    }
    frontAndBack
    {
        type            empty;
        value           nonuniform List<scalar> 0();
    }
    procBoundary6to3
    {
        type            processor;
        value           nonuniform List<scalar> 5(4.24253e-05 4.19091e-05 3.84562e-05 3.09845e-05 1.82511e-05);
    }
    procBoundary6to4
    {
        type            processor;
        value           nonuniform List<scalar> 5(-1.39925e-06 -2.99596e-05 -6.9864e-05 -0.000123414 -0.000193639);
    }
    procBoundary6to5
    {
        type            processor;
        value           nonuniform List<scalar> 4(-2.47502e-06 6.47031e-06 1.58003e-05 2.51003e-05);
    }
    procBoundary6to8
    {
        type            processor;
        value           nonuniform List<scalar> 4(-4.06866e-05 -4.21156e-05 -4.0704e-05 -3.50146e-05);
    }
    procBoundary6to9
    {
        type            processor;
        value           nonuniform List<scalar> 6(-2.34113e-05 -4.35586e-06 2.38019e-05 6.2625e-05 0.000114497 0.000186717);
    }
}


// ************************************************************************* //
