/*--------------------------------*- C++ -*----------------------------------*\
  =========                 |
  \\      /  F ield         | OpenFOAM: The Open Source CFD Toolbox
   \\    /   O peration     | Website:  https://openfoam.org
    \\  /    A nd           | Version:  9
     \\/     M anipulation  |
\*---------------------------------------------------------------------------*/
FoamFile
{
    format      ascii;
    class       surfaceScalarField;
    location    "0.015";
    object      phi;
}
// * * * * * * * * * * * * * * * * * * * * * * * * * * * * * * * * * * * * * //

dimensions      [0 3 -1 0 0 0 0];

internalField   nonuniform List<scalar> 
67
(
-2.13289e-06
-2.82403e-07
-1.70162e-06
-4.31269e-07
-1.17694e-06
-5.24676e-07
-6.37947e-07
-5.38996e-07
-1.74654e-07
-4.63294e-07
-1.74654e-07
-3.96119e-06
-8.04005e-07
-3.21475e-06
-1.17771e-06
-2.29992e-06
-1.43951e-06
-1.33368e-06
-1.50523e-06
-4.58772e-07
-1.33821e-06
-6.33425e-07
-4.65216e-06
-1.41972e-06
-3.80958e-06
-2.02028e-06
-2.76468e-06
-2.48442e-06
-1.63337e-06
-2.63653e-06
-5.79708e-07
-2.39187e-06
-1.21313e-06
-5.05562e-06
-2.12667e-06
-4.15225e-06
-2.92366e-06
-3.0539e-06
-3.58277e-06
-1.82659e-06
-3.86383e-06
-6.58676e-07
-3.55979e-06
-1.87181e-06
-5.30309e-06
-2.95676e-06
-4.28991e-06
-3.93684e-06
-3.12658e-06
-4.7461e-06
-1.89691e-06
-5.0935e-06
-6.90753e-07
-4.76594e-06
-2.56256e-06
-5.58927e-06
-4.40638e-06
-3.11778e-06
-6.0347e-06
-1.81502e-06
-6.39626e-06
-6.46803e-07
-5.93416e-06
-3.20937e-06
-3.35892e-06
-1.87039e-06
-6.09938e-07
)
;

boundaryField
{
    movingWall
    {
        type            calculated;
        value           nonuniform List<scalar> 0();
    }
    fixedWalls
    {
        type            calculated;
        value           uniform 0;
    }
    frontAndBack
    {
        type            empty;
        value           nonuniform List<scalar> 0();
    }
    procBoundary7to5
    {
        type            processor;
        value           nonuniform List<scalar> 6(2.41529e-06 4.48279e-06 5.26787e-06 5.76257e-06 6.13317e-06 6.63209e-06);
    }
    procBoundary7to8
    {
        type            processor;
        value           nonuniform List<scalar> 7(-3.99957e-06 -5.11973e-06 4.88499e-06 -7.56077e-06 -7.88479e-06 -7.19461e-06 -3.8193e-06);
    }
}


// ************************************************************************* //
