/*--------------------------------*- C++ -*----------------------------------*\
  =========                 |
  \\      /  F ield         | OpenFOAM: The Open Source CFD Toolbox
   \\    /   O peration     | Website:  https://openfoam.org
    \\  /    A nd           | Version:  9
     \\/     M anipulation  |
\*---------------------------------------------------------------------------*/
FoamFile
{
    format      ascii;
    class       surfaceScalarField;
    location    "0.015";
    object      phi;
}
// * * * * * * * * * * * * * * * * * * * * * * * * * * * * * * * * * * * * * //

dimensions      [0 3 -1 0 0 0 0];

internalField   nonuniform List<scalar> 
66
(
-1.08119e-05
-1.19783e-06
-9.94584e-06
-2.29325e-06
-9.48688e-06
-2.48001e-06
-3.19045e-06
-1.35032e-05
-2.19617e-06
-1.24923e-05
-3.30418e-06
-1.16034e-05
-3.36889e-06
-3.91538e-06
-1.54293e-05
-2.69851e-06
-1.46737e-05
-4.05984e-06
-1.35867e-05
-4.45584e-06
-5.04716e-06
-1.60057e-05
-2.46302e-06
-1.58849e-05
-4.18065e-06
-1.52138e-05
-5.12692e-06
-6.02828e-06
-1.54715e-05
-1.78782e-06
-1.61085e-05
-3.5436e-06
-1.62382e-05
-4.99726e-06
-6.31416e-06
-1.31174e-05
-1.06701e-06
-1.41141e-05
-2.54685e-06
-1.49309e-05
-4.18045e-06
-5.69259e-06
-6.00642e-06
-7.02601e-07
-6.92943e-06
-1.62385e-06
-8.14822e-06
-2.96166e-06
-4.35155e-06
1.03536e-05
-4.9365e-07
9.69138e-06
-9.61592e-07
8.34161e-06
-1.61189e-06
-2.50071e-06
4.314e-05
-1.7426e-07
4.2505e-05
-3.26628e-07
4.14322e-05
-5.39068e-07
-8.18426e-07
0.000103422
0.000103096
0.000102556
)
;

boundaryField
{
    movingWall
    {
        type            calculated;
        value           uniform 0;
    }
    fixedWalls
    {
        type            calculated;
        value           nonuniform List<scalar> 0();
    }
    frontAndBack
    {
        type            empty;
        value           nonuniform List<scalar> 0();
    }
    procBoundary6to3
    {
        type            processor;
        value           nonuniform List<scalar> 5(1.1904e-05 1.45016e-05 1.59317e-05 1.57702e-05 1.47963e-05);
    }
    procBoundary6to4
    {
        type            processor;
        value           nonuniform List<scalar> 5(1.23966e-05 5.64202e-06 -1.05626e-05 -4.34594e-05 -0.000103596);
    }
    procBoundary6to5
    {
        type            processor;
        value           nonuniform List<scalar> 4(1.05728e-07 1.42719e-06 2.02106e-06 3.03901e-06);
    }
    procBoundary6to8
    {
        type            processor;
        value           nonuniform List<scalar> 4(-9.33545e-06 -1.08785e-05 -1.24549e-05 -1.42327e-05);
    }
    procBoundary6to9
    {
        type            processor;
        value           nonuniform List<scalar> 6(-1.59523e-05 -1.55525e-05 -9.48926e-06 6.49077e-06 3.97499e-05 0.000101738);
    }
}


// ************************************************************************* //
