/*--------------------------------*- C++ -*----------------------------------*\
  =========                 |
  \\      /  F ield         | OpenFOAM: The Open Source CFD Toolbox
   \\    /   O peration     | Website:  https://openfoam.org
    \\  /    A nd           | Version:  8
     \\/     M anipulation  |
\*---------------------------------------------------------------------------*/
FoamFile
{
    version     2.0;
    format      ascii;
    class       volScalarField;
    location    "1";
    object      p;
}
// * * * * * * * * * * * * * * * * * * * * * * * * * * * * * * * * * * * * * //

dimensions      [0 2 -2 0 0 0 0];

internalField   nonuniform List<scalar> 
400
(
-0.0992377
-0.198284
-0.251463
-0.276859
-0.280501
-0.268287
-0.243342
-0.206254
-0.159669
-0.10658
-0.0492199
0.0102251
0.0689881
0.123926
0.172163
0.211652
0.241398
0.261387
0.2724
0.276063
-0.198671
-0.239169
-0.268717
-0.283879
-0.28287
-0.268014
-0.241667
-0.20452
-0.15876
-0.106746
-0.0502954
0.00856716
0.0670602
0.121908
0.170041
0.209238
0.238431
0.257544
0.266944
0.26659
-0.2504
-0.268619
-0.280433
-0.284842
-0.277515
-0.260164
-0.234088
-0.198982
-0.156392
-0.108099
-0.0552487
0.00069584
0.057149
0.110606
0.157518
0.195236
0.222577
0.239684
0.247125
0.24537
-0.273423
-0.280927
-0.280934
-0.27674
-0.264113
-0.244981
-0.220228
-0.188724
-0.151386
-0.109377
-0.062935
-0.0125795
0.0396
0.0899653
0.134415
0.169736
0.194496
0.208962
0.214046
0.210788
-0.278256
-0.279289
-0.271839
-0.261244
-0.24428
-0.223726
-0.200636
-0.17331
-0.14218
-0.10809
-0.0704851
-0.0287106
0.0160637
0.0604526
0.100075
0.131331
0.152554
0.163923
0.166651
0.162174
-0.270569
-0.267863
-0.255949
-0.241263
-0.221319
-0.199937
-0.178833
-0.155941
-0.131187
-0.105615
-0.0784734
-0.0479844
-0.0139096
0.0213108
0.0535925
0.079242
0.0963163
0.104606
0.105568
0.100816
-0.255992
-0.252054
-0.238479
-0.222428
-0.201452
-0.180158
-0.161363
-0.14295
-0.123855
-0.105775
-0.0888989
-0.0709904
-0.0501354
-0.0269507
-0.00428592
0.0146328
0.0275909
0.0335742
0.0339818
0.0302549
-0.239855
-0.237013
-0.224716
-0.210499
-0.191186
-0.171458
-0.155507
-0.142121
-0.128071
-0.115396
-0.106556
-0.100269
-0.0932559
-0.0835711
-0.0717222
-0.0596789
-0.0498278
-0.0445045
-0.0430485
-0.0448063
-0.224589
-0.225104
-0.217097
-0.20842
-0.194648
-0.179307
-0.16736
-0.160923
-0.153154
-0.144538
-0.140412
-0.142356
-0.146974
-0.149689
-0.147802
-0.141179
-0.132157
-0.124959
-0.120789
-0.120783
-0.208421
-0.213986
-0.212952
-0.213636
-0.210532
-0.204756
-0.198889
-0.202704
-0.205602
-0.203019
-0.201763
-0.207686
-0.219297
-0.230441
-0.23515
-0.230604
-0.218748
-0.20617
-0.197466
-0.197053
-0.18521
-0.196363
-0.204835
-0.218618
-0.231954
-0.244343
-0.24833
-0.265716
-0.28561
-0.295294
-0.299242
-0.306985
-0.320694
-0.334664
-0.340769
-0.333543
-0.314086
-0.291403
-0.275065
-0.274864
-0.145783
-0.162382
-0.184491
-0.216332
-0.251182
-0.293325
-0.3147
-0.347919
-0.388895
-0.417955
-0.433138
-0.444486
-0.457762
-0.469661
-0.472036
-0.457618
-0.425825
-0.38701
-0.356473
-0.352445
-0.081301
-0.104357
-0.148173
-0.20751
-0.267074
-0.347647
-0.398507
-0.450999
-0.512295
-0.563018
-0.594504
-0.61315
-0.625748
-0.632273
-0.627365
-0.603737
-0.557291
-0.496167
-0.43954
-0.419149
0.0130139
-0.0209357
-0.09659
-0.19808
-0.286208
-0.398896
-0.487664
-0.567782
-0.650007
-0.721845
-0.772259
-0.800047
-0.808071
-0.802084
-0.785032
-0.752621
-0.694196
-0.608356
-0.510719
-0.453318
0.138559
0.0836708
-0.0259419
-0.175066
-0.303658
-0.426252
-0.54201
-0.658579
-0.774929
-0.878576
-0.958172
-1.00066
-0.984549
-0.942308
-0.897472
-0.853096
-0.789163
-0.68564
-0.540293
-0.426288
0.302508
0.209399
0.0780306
-0.0842971
-0.26605
-0.397644
-0.528028
-0.690339
-0.875982
-1.05292
-1.18799
-1.24133
-1.18396
-1.05266
-0.918798
-0.827237
-0.754491
-0.652631
-0.481018
-0.310524
0.525542
0.382981
0.239418
0.116775
-0.0927017
-0.292421
-0.515792
-0.783413
-1.07243
-1.33459
-1.51738
-1.5782
-1.49787
-1.26508
-0.955832
-0.669652
-0.483809
-0.390738
-0.265843
-0.0892086
0.837932
0.690614
0.543881
0.367043
0.075314
-0.27005
-0.66569
-1.06818
-1.41707
-1.68001
-1.8462
-1.91016
-1.86131
-1.66648
-1.27541
-0.696234
-0.132479
0.200039
0.247503
0.314926
1.45543
1.25625
0.952306
0.482326
-0.106485
-0.645821
-1.08706
-1.44677
-1.73195
-1.94332
-2.08268
-2.14988
-2.13543
-2.01101
-1.7214
-1.18041
-0.311388
0.604744
1.10327
1.19993
2.1012
1.62402
0.830818
-0.00141996
-0.58527
-1.00333
-1.34264
-1.62876
-1.86195
-2.04002
-2.16284
-2.22911
-2.23031
-2.14601
-1.94316
-1.57666
-0.945555
0.126206
1.46241
2.19077
)
;

boundaryField
{
    movingWall
    {
        type            zeroGradient;
    }
    fixedWalls
    {
        type            zeroGradient;
    }
    frontAndBack
    {
        type            empty;
    }
}


// ************************************************************************* //
