/*--------------------------------*- C++ -*----------------------------------*\
  =========                 |
  \\      /  F ield         | OpenFOAM: The Open Source CFD Toolbox
   \\    /   O peration     | Website:  https://openfoam.org
    \\  /    A nd           | Version:  8
     \\/     M anipulation  |
\*---------------------------------------------------------------------------*/
FoamFile
{
    version     2.0;
    format      ascii;
    class       surfaceScalarField;
    location    "1";
    object      phi;
}
// * * * * * * * * * * * * * * * * * * * * * * * * * * * * * * * * * * * * * //

dimensions      [0 3 -1 0 0 0 0];

internalField   nonuniform List<scalar> 
760
(
6.4015e-08
-6.41802e-08
-1.33944e-07
1.97959e-07
-6.01601e-07
4.67661e-07
-1.25016e-06
6.48556e-07
-1.98682e-06
7.36657e-07
-2.7305e-06
7.43681e-07
-3.41228e-06
6.81787e-07
-3.97278e-06
5.60496e-07
-4.36028e-06
3.87502e-07
-4.53201e-06
1.7173e-07
-4.45873e-06
-7.32857e-08
-4.13171e-06
-3.27013e-07
-3.57012e-06
-5.61593e-07
-2.82613e-06
-7.43981e-07
-1.98524e-06
-8.4089e-07
-1.15922e-06
-8.26025e-07
-4.70698e-07
-6.88524e-07
-2.97979e-08
-4.409e-07
1.02244e-07
-1.32039e-07
1.02248e-07
-1.96342e-07
1.32152e-07
-9.66439e-07
9.68065e-07
-2.25744e-06
1.75866e-06
-3.90721e-06
2.29833e-06
-5.72968e-06
2.55912e-06
-7.54605e-06
2.56006e-06
-9.19482e-06
2.33055e-06
-1.05338e-05
1.89947e-06
-1.14417e-05
1.29543e-06
-1.18236e-05
5.53601e-07
-1.16206e-05
-2.76279e-07
-1.0823e-05
-1.12459e-06
-9.48286e-06
-1.90176e-06
-7.72128e-06
-2.50556e-06
-5.72621e-06
-2.83597e-06
-3.73545e-06
-2.81678e-06
-2.00311e-06
-2.42087e-06
-7.50311e-07
-1.69371e-06
-1.03268e-07
-7.79091e-07
-1.01642e-09
-5.06302e-07
6.3846e-07
-1.89294e-06
2.35471e-06
-3.96839e-06
3.83411e-06
-6.49216e-06
4.8221e-06
-9.2114e-06
5.27836e-06
-1.18839e-05
5.23258e-06
-1.42883e-05
4.73493e-06
-1.62282e-05
3.83936e-06
-1.75368e-05
2.60406e-06
-1.80852e-05
1.10202e-06
-1.77952e-05
-5.663e-07
-1.66551e-05
-2.26472e-06
-1.47349e-05
-3.82195e-06
-1.21957e-05
-5.04471e-06
-9.28733e-06
-5.74437e-06
-6.32802e-06
-5.77609e-06
-3.66371e-06
-5.08518e-06
-1.6079e-06
-3.74952e-06
-3.71401e-07
-2.01559e-06
-3.72416e-07
-7.89686e-07
1.42815e-06
-2.76931e-06
4.33433e-06
-5.58923e-06
6.65403e-06
-8.91516e-06
8.14803e-06
-1.24316e-05
8.79485e-06
-1.58488e-05
8.64974e-06
-1.89052e-05
7.7913e-06
-2.13693e-05
6.30349e-06
-2.30438e-05
4.27858e-06
-2.37742e-05
1.8324e-06
-2.34627e-05
-8.77752e-07
-2.20864e-05
-3.64104e-06
-1.97152e-05
-6.19317e-06
-1.65261e-05
-8.23378e-06
-1.28062e-05
-9.46427e-06
-8.93642e-06
-9.64592e-06
-5.35049e-06
-8.67111e-06
-2.46986e-06
-6.63014e-06
-6.26345e-07
-3.85911e-06
-9.98761e-07
-1.04215e-06
2.4703e-06
-3.57093e-06
6.86311e-06
-7.08514e-06
1.01682e-05
-1.11537e-05
1.22165e-05
-1.5401e-05
1.30422e-05
-1.94987e-05
1.27475e-05
-2.31582e-05
1.14507e-05
-2.61253e-05
9.27067e-06
-2.81813e-05
6.33456e-06
-2.91488e-05
2.79991e-06
-2.89057e-05
-1.12094e-06
-2.74039e-05
-5.14277e-06
-2.46934e-05
-8.90368e-06
-2.09441e-05
-1.19831e-05
-1.64606e-05
-1.39478e-05
-1.1678e-05
-1.44285e-05
-7.1268e-06
-1.32223e-05
-3.3636e-06
-1.03933e-05
-8.77273e-07
-6.34543e-06
-1.87603e-06
-1.26718e-06
3.73748e-06
-4.29551e-06
9.89144e-06
-8.4464e-06
1.43191e-05
-1.3197e-05
1.69671e-05
-1.8117e-05
1.79622e-05
-2.28479e-05
1.74784e-05
-2.70839e-05
1.56867e-05
-3.05585e-05
1.27453e-05
-3.30382e-05
8.81419e-06
-3.43238e-05
4.08553e-06
-3.42621e-05
-1.18267e-06
-3.27655e-05
-6.63937e-06
-2.98413e-05
-1.18278e-05
-2.56267e-05
-1.61978e-05
-2.04209e-05
-1.91536e-05
-1.4702e-05
-2.01474e-05
-9.10689e-06
-1.88174e-05
-4.35989e-06
-1.51403e-05
-1.15212e-06
-9.5532e-06
-3.02815e-06
-1.46711e-06
5.20458e-06
-4.94232e-06
1.33667e-05
-9.66386e-06
1.90407e-05
-1.50256e-05
2.23289e-05
-2.05504e-05
2.3487e-05
-2.5859e-05
2.2787e-05
-3.06398e-05
2.04675e-05
-3.46243e-05
1.67298e-05
-3.75721e-05
1.1762e-05
-3.92654e-05
5.77889e-06
-3.95155e-05
-9.32546e-07
-3.81818e-05
-7.97315e-06
-3.52059e-05
-1.48037e-05
-3.06608e-05
-2.07428e-05
-2.48079e-05
-2.50065e-05
-1.81447e-05
-2.68107e-05
-1.14144e-05
-2.55477e-05
-5.54244e-06
-2.10123e-05
-1.48324e-06
-1.36124e-05
-4.51139e-06
-1.64257e-06
6.84716e-06
-5.50837e-06
1.72325e-05
-1.0723e-05
2.42553e-05
-1.66051e-05
2.8211e-05
-2.26404e-05
2.95223e-05
-2.84408e-05
2.85874e-05
-3.37019e-05
2.57287e-05
-3.81673e-05
2.11952e-05
-4.16019e-05
1.51965e-05
-4.37776e-05
7.95462e-06
-4.4472e-05
-2.38134e-07
-4.34832e-05
-8.96197e-06
-4.06663e-05
-1.76206e-05
-3.59947e-05
-2.54144e-05
-2.9645e-05
-3.13561e-05
-2.20894e-05
-3.43663e-05
-1.41554e-05
-3.34817e-05
-6.99488e-06
-2.81728e-05
-1.90469e-06
-1.87026e-05
-6.41609e-06
-1.79438e-06
8.64154e-06
-5.99161e-06
2.14297e-05
-1.16076e-05
2.98713e-05
-1.78909e-05
3.44943e-05
-2.43001e-05
3.59314e-05
-3.04528e-05
3.47401e-05
-3.60695e-05
3.13454e-05
-4.09241e-05
2.60497e-05
-4.48052e-05
1.90777e-05
-4.74913e-05
1.06407e-05
-4.87379e-05
1.00844e-06
-4.82843e-05
-9.41552e-06
-4.58856e-05
-2.00194e-05
-4.13802e-05
-2.99198e-05
-3.48008e-05
-3.79355e-05
-2.65201e-05
-4.2647e-05
-1.73911e-05
-4.26108e-05
-8.79159e-06
-3.67722e-05
-2.45212e-06
-2.5042e-05
-8.86821e-06
-1.92777e-06
1.05693e-05
-6.40036e-06
2.59023e-05
-1.23125e-05
3.57834e-05
-1.88413e-05
4.10231e-05
-2.54295e-05
4.25196e-05
-3.17193e-05
4.10299e-05
-3.74783e-05
3.71044e-05
-4.25346e-05
3.11061e-05
-4.67268e-05
2.32699e-05
-4.98654e-05
1.37794e-05
-5.17093e-05
2.85229e-06
-5.19569e-05
-9.16788e-06
-5.02656e-05
-2.17107e-05
-4.6313e-05
-3.38724e-05
-3.99226e-05
-4.43259e-05
-3.12642e-05
-5.13054e-05
-2.11027e-05
-5.27722e-05
-1.09873e-05
-4.68877e-05
-3.16425e-06
-3.28651e-05
-1.20325e-05
-2.05977e-06
1.26291e-05
-6.76851e-06
3.0611e-05
-1.28618e-05
4.18767e-05
-1.94363e-05
4.75977e-05
-2.59342e-05
4.90175e-05
-3.20481e-05
4.71438e-05
-3.76214e-05
4.26776e-05
-4.25666e-05
3.60513e-05
-4.68034e-05
2.75067e-05
-5.02103e-05
1.71863e-05
-5.25871e-05
5.22915e-06
-5.36293e-05
-8.12568e-06
-5.29228e-05
-2.24172e-05
-4.99821e-05
-3.68131e-05
-4.43671e-05
-4.99409e-05
-3.59204e-05
-5.9752e-05
-2.51412e-05
-6.35515e-05
-1.35996e-05
-5.84293e-05
-4.085e-06
-4.23797e-05
-1.61175e-05
-2.23069e-06
1.48598e-05
-7.1765e-06
3.55568e-05
-1.33308e-05
4.8031e-05
-1.96957e-05
5.39626e-05
-2.57399e-05
5.50617e-05
-3.12454e-05
5.26493e-05
-3.61692e-05
4.76014e-05
-4.0543e-05
4.04251e-05
-4.44025e-05
3.13662e-05
-4.77336e-05
2.05174e-05
-5.04252e-05
7.92074e-06
-5.22253e-05
-6.3256e-06
-5.27049e-05
-2.19376e-05
-5.1252e-05
-3.8266e-05
-4.7144e-05
-5.4049e-05
-3.97795e-05
-6.71166e-05
-2.91553e-05
-7.41757e-05
-1.65769e-05
-7.10077e-05
-5.26539e-06
-5.36912e-05
-2.13829e-05
-2.52285e-06
1.73826e-05
-7.77692e-06
4.08109e-05
-1.38613e-05
5.41153e-05
-1.96785e-05
5.97798e-05
-2.4781e-05
6.01642e-05
-2.91025e-05
5.69708e-05
-3.27636e-05
5.12625e-05
-3.59528e-05
4.36144e-05
-3.88543e-05
3.42677e-05
-4.15966e-05
2.32596e-05
-4.42052e-05
1.05293e-05
-4.65465e-05
-3.98433e-06
-4.82605e-05
-2.02235e-05
-4.86952e-05
-3.78313e-05
-4.68936e-05
-5.58506e-05
-4.1747e-05
-7.22631e-05
-3.24965e-05
-8.34263e-05
-1.97409e-05
-8.37632e-05
-6.76182e-06
-6.66703e-05
-2.81447e-05
-3.09053e-06
2.04732e-05
-8.81702e-06
4.65374e-05
-1.46447e-05
5.9943e-05
-1.94253e-05
6.45604e-05
-2.29167e-05
6.36556e-05
-2.53047e-05
5.93588e-05
-2.69373e-05
5.2895e-05
-2.81953e-05
4.48724e-05
-2.94317e-05
3.55041e-05
-3.09367e-05
2.47647e-05
-3.29037e-05
1.24963e-05
-3.53748e-05
-1.51319e-06
-3.81551e-05
-1.74432e-05
-4.06862e-05
-3.53002e-05
-4.19173e-05
-5.46195e-05
-4.02876e-05
-7.38928e-05
-3.40981e-05
-8.96158e-05
-2.26826e-05
-9.51787e-05
-8.61856e-06
-8.07343e-05
-3.67632e-05
-4.20106e-06
2.46742e-05
-1.0623e-05
5.29594e-05
-1.57985e-05
6.51185e-05
-1.87469e-05
6.75088e-05
-1.96746e-05
6.45834e-05
-1.91682e-05
5.88524e-05
-1.7872e-05
5.15989e-05
-1.63794e-05
4.33797e-05
-1.52058e-05
3.43306e-05
-1.47897e-05
2.43485e-05
-1.54872e-05
1.31937e-05
-1.75401e-05
5.39688e-07
-2.09939e-05
-1.39894e-05
-2.55392e-05
-3.07549e-05
-3.0265e-05
-4.98937e-05
-3.33962e-05
-7.07615e-05
-3.23179e-05
-9.06941e-05
-2.45668e-05
-0.00010293
-1.07934e-05
-9.45078e-05
-4.75566e-05
-6.24807e-06
3.09223e-05
-1.34082e-05
6.01195e-05
-1.69277e-05
6.86379e-05
-1.66413e-05
6.72224e-05
-1.36303e-05
6.15725e-05
-9.05288e-06
5.42749e-05
-3.88362e-06
4.64296e-05
1.10388e-06
3.83922e-05
5.28994e-06
3.01445e-05
8.15255e-06
2.14859e-05
9.23081e-06
1.21155e-05
8.11869e-06
1.65182e-06
4.51421e-06
-1.03849e-05
-1.64193e-06
-2.45987e-05
-9.86061e-06
-4.1675e-05
-1.85969e-05
-6.20252e-05
-2.47195e-05
-8.45716e-05
-2.37595e-05
-0.00010389
-1.29204e-05
-0.000105347
-6.0477e-05
-9.56412e-06
4.04864e-05
-1.64316e-05
6.6987e-05
-1.58266e-05
6.8033e-05
-9.89325e-06
6.1289e-05
-1.12717e-06
5.28064e-05
8.70572e-06
4.4442e-05
1.84251e-05
3.67103e-05
2.72336e-05
2.95836e-05
3.45543e-05
2.28238e-05
3.99119e-05
1.61283e-05
4.28564e-05
9.17108e-06
4.2919e-05
1.58922e-06
3.96114e-05
-7.0774e-06
3.2489e-05
-1.74763e-05
2.13947e-05
-3.05807e-05
7.06232e-06
-4.76928e-05
-7.76791e-06
-6.97414e-05
-1.72182e-05
-9.44394e-05
-1.37688e-05
-0.000108796
-7.42458e-05
-1.34357e-05
5.39221e-05
-1.50877e-05
6.8639e-05
-5.10191e-06
5.80472e-05
9.81108e-06
4.63761e-05
2.58473e-05
3.67702e-05
4.12221e-05
2.90672e-05
5.50553e-05
2.28771e-05
6.68825e-05
1.77564e-05
7.64151e-05
1.32912e-05
8.34016e-05
9.14176e-06
8.75473e-05
5.02537e-06
8.84599e-05
6.76643e-07
8.56136e-05
-4.23108e-06
7.83018e-05
-1.01646e-05
6.56954e-05
-1.79743e-05
4.72136e-05
-2.92111e-05
2.38102e-05
-4.63379e-05
7.1554e-07
-7.13448e-05
-1.022e-05
-9.78608e-05
-8.44658e-05
-9.41496e-06
6.3337e-05
8.82156e-06
5.04025e-05
3.51897e-05
3.16791e-05
6.00537e-05
2.1512e-05
8.15094e-05
1.53145e-05
9.94858e-05
1.10907e-05
0.000114242
8.12132e-06
0.00012606
5.93763e-06
0.000135147
4.20483e-06
0.000141585
2.70348e-06
0.000145324
1.28614e-06
0.000146157
-1.56521e-07
0.000143693
-1.76707e-06
0.00013723
-3.7015e-06
0.000125596
-6.34043e-06
0.000106941
-1.0556e-05
7.91143e-05
-1.85108e-05
4.23156e-05
-3.4546e-05
6.9039e-06
-6.24491e-05
-7.75619e-05
6.3337e-05
0.00011374
0.000145419
0.000166931
0.000182245
0.000193336
0.000201457
0.000207395
0.0002116
0.000214303
0.000215589
0.000215433
0.000213666
0.000209964
0.000203624
0.000193068
0.000174557
0.000140011
7.75619e-05
)
;

boundaryField
{
    movingWall
    {
        type            calculated;
        value           uniform 0;
    }
    fixedWalls
    {
        type            calculated;
        value           uniform 0;
    }
    frontAndBack
    {
        type            empty;
        value           nonuniform List<scalar> 0();
    }
}


// ************************************************************************* //
