/*--------------------------------*- C++ -*----------------------------------*\
  =========                 |
  \\      /  F ield         | OpenFOAM: The Open Source CFD Toolbox
   \\    /   O peration     | Website:  https://openfoam.org
    \\  /    A nd           | Version:  8
     \\/     M anipulation  |
\*---------------------------------------------------------------------------*/
FoamFile
{
    version     2.0;
    format      ascii;
    class       volVectorField;
    location    "1";
    object      U;
}
// * * * * * * * * * * * * * * * * * * * * * * * * * * * * * * * * * * * * * //

dimensions      [0 1 -1 0 0 0 0];

internalField   nonuniform List<vector> 
400
(
(0.0012043 -0.00120827 0)
(0.000401627 0.000673273 0)
(-0.00645332 0.00286846 0)
(-0.0179743 0.004342 0)
(-0.032185 0.00507101 0)
(-0.0473125 0.00518729 0)
(-0.0618514 0.00480775 0)
(-0.0745193 0.00400895 0)
(-0.0842021 0.00283861 0)
(-0.0899419 0.00134628 0)
(-0.0909958 -0.000383534 0)
(-0.086958 -0.00220786 0)
(-0.0779115 -0.00391794 0)
(-0.0645625 -0.00525489 0)
(-0.0483048 -0.00594843 0)
(-0.0311592 -0.00577557 0)
(-0.0155509 -0.00463047 0)
(-0.00390989 -0.00259516 0)
(0.001893 -8.65163e-05 0)
(0.00157783 0.00152506 0)
(-0.000623442 -0.00051229 0)
(-0.00896685 0.00884268 0)
(-0.0300664 0.0184092 0)
(-0.0604051 0.0249934 0)
(-0.0960121 0.0282478 0)
(-0.133212 0.0284787 0)
(-0.168592 0.0260825 0)
(-0.199099 0.0214056 0)
(-0.222079 0.0147563 0)
(-0.235334 0.00650225 0)
(-0.237275 -0.00281708 0)
(-0.227159 -0.0124136 0)
(-0.205368 -0.0212426 0)
(-0.173622 -0.0280873 0)
(-0.135058 -0.0317396 0)
(-0.0940488 -0.0312653 0)
(-0.0556858 -0.0263139 0)
(-0.0249272 -0.0174181 0)
(-0.00570089 -0.0064165 0)
(0.00031288 0.00208407 0)
(-0.00307656 0.00649977 0)
(-0.0201125 0.0303415 0)
(-0.0555971 0.0520925 0)
(-0.103024 0.0669229 0)
(-0.15671 0.0740195 0)
(-0.211767 0.0738109 0)
(-0.263568 0.0670564 0)
(-0.307902 0.0545507 0)
(-0.341105 0.0371241 0)
(-0.36017 0.0158107 0)
(-0.36296 -0.00794703 0)
(-0.348505 -0.0321644 0)
(-0.317335 -0.054324 0)
(-0.271746 -0.0715763 0)
(-0.215898 -0.0811506 0)
(-0.155615 -0.0809483 0)
(-0.0977386 -0.0702375 0)
(-0.0490588 -0.0502945 0)
(-0.0155832 -0.0250378 0)
(-0.00167191 -0.00260499 0)
(-0.00527392 0.019557 0)
(-0.0305793 0.0642565 0)
(-0.0799031 0.101458 0)
(-0.143299 0.125992 0)
(-0.21328 0.137061 0)
(-0.283987 0.135416 0)
(-0.349955 0.122292 0)
(-0.406225 0.0990418 0)
(-0.448472 0.0671536 0)
(-0.473126 0.0285038 0)
(-0.477592 -0.0143446 0)
(-0.460581 -0.0579447 0)
(-0.422491 -0.0979858 0)
(-0.365754 -0.129608 0)
(-0.29504 -0.148053 0)
(-0.217163 -0.149635 0)
(-0.140459 -0.13289 0)
(-0.0736409 -0.0996342 0)
(-0.0253463 -0.0557702 0)
(-0.0034616 -0.0125749 0)
(-0.00717558 0.0379816 0)
(-0.040035 0.109569 0)
(-0.10228 0.165089 0)
(-0.18054 0.200265 0)
(-0.265521 0.215039 0)
(-0.350509 0.21087 0)
(-0.429447 0.189664 0)
(-0.496892 0.153422 0)
(-0.548094 0.104343 0)
(-0.579046 0.0451772 0)
(-0.586679 -0.0203558 0)
(-0.569199 -0.0872791 0)
(-0.526524 -0.149343 0)
(-0.460763 -0.199402 0)
(-0.376638 -0.230271 0)
(-0.281639 -0.236078 0)
(-0.185572 -0.213964 0)
(-0.0994437 -0.1657 0)
(-0.0352426 -0.0987949 0)
(-0.00511121 -0.0275299 0)
(-0.00883926 0.0611802 0)
(-0.0485131 0.165374 0)
(-0.122585 0.242032 0)
(-0.214497 0.288764 0)
(-0.313254 0.307001 0)
(-0.411419 0.299383 0)
(-0.50253 0.268735 0)
(-0.580885 0.217803 0)
(-0.641485 0.149476 0)
(-0.679977 0.0672955 0)
(-0.69277 -0.0239754 0)
(-0.677348 -0.117917 0)
(-0.632766 -0.206318 0)
(-0.560312 -0.279512 0)
(-0.464231 -0.327351 0)
(-0.352305 -0.340933 0)
(-0.23576 -0.314961 0)
(-0.12832 -0.250199 0)
(-0.0462197 -0.155241 0)
(-0.00687483 -0.0476371 0)
(-0.0103051 0.0886286 0)
(-0.0560578 0.230665 0)
(-0.140732 0.3311 0)
(-0.244881 0.390271 0)
(-0.355982 0.411827 0)
(-0.466039 0.400097 0)
(-0.568396 0.359105 0)
(-0.657317 0.292423 0)
(-0.727754 0.203561 0)
(-0.775129 0.0966575 0)
(-0.795323 -0.0227446 0)
(-0.784925 -0.147039 0)
(-0.741761 -0.266187 0)
(-0.665736 -0.367867 0)
(-0.559947 -0.438402 0)
(-0.431842 -0.464777 0)
(-0.293757 -0.43777 0)
(-0.162429 -0.355641 0)
(-0.0594323 -0.227198 0)
(-0.00905054 -0.0736847 0)
(-0.0115926 0.119831 0)
(-0.062678 0.304352 0)
(-0.156586 0.430866 0)
(-0.271237 0.503202 0)
(-0.392779 0.527957 0)
(-0.512863 0.511687 0)
(-0.624895 0.459921 0)
(-0.723384 0.37714 0)
(-0.803505 0.267353 0)
(-0.860669 0.135013 0)
(-0.890346 -0.0139623 0)
(-0.888181 -0.171228 0)
(-0.850491 -0.325282 0)
(-0.775231 -0.461221 0)
(-0.663502 -0.56138 0)
(-0.521429 -0.607415 0)
(-0.361659 -0.5842 0)
(-0.203845 -0.485195 0)
(-0.0761094 -0.317796 0)
(-0.0119667 -0.107138 0)
(-0.0127223 0.154298 0)
(-0.0684015 0.385267 0)
(-0.170028 0.539644 0)
(-0.293028 0.625494 0)
(-0.42239 0.653148 0)
(-0.549662 0.631995 0)
(-0.668639 0.569413 0)
(-0.774442 0.470885 0)
(-0.862842 0.340785 0)
(-0.929605 0.183534 0)
(-0.970084 0.00489888 0)
(-0.979149 -0.186686 0)
(-0.951529 -0.378909 0)
(-0.882765 -0.554724 0)
(-0.771009 -0.692349 0)
(-0.619662 -0.766982 0)
(-0.440157 -0.755185 0)
(-0.254215 -0.642238 0)
(-0.097512 -0.431106 0)
(-0.0160058 -0.150166 0)
(-0.0137619 0.19158 0)
(-0.0734185 0.472225 0)
(-0.181184 0.655458 0)
(-0.309889 0.754431 0)
(-0.443492 0.784159 0)
(-0.573752 0.757578 0)
(-0.695277 0.684327 0)
(-0.80427 0.571017 0)
(-0.897599 0.422266 0)
(-0.971902 0.242103 0)
(-1.02295 0.0355504 0)
(-1.0453 -0.189695 0)
(-1.03233 -0.421499 0)
(-0.977 -0.641623 0)
(-0.87365 -0.824665 0)
(-0.721229 -0.938716 0)
(-0.527566 -0.949487 0)
(-0.31432 -0.829439 0)
(-0.12492 -0.571829 0)
(-0.0216558 -0.205691 0)
(-0.0149069 0.231424 0)
(-0.0783211 0.564201 0)
(-0.190778 0.776087 0)
(-0.322019 0.886498 0)
(-0.455069 0.91643 0)
(-0.582362 0.88326 0)
(-0.699887 0.799372 0)
(-0.805516 0.672674 0)
(-0.897824 0.507943 0)
(-0.974989 0.3085 0)
(-1.03394 0.0780338 0)
(-1.06969 -0.177411 0)
(-1.075 -0.447162 0)
(-1.04056 -0.713345 0)
(-0.956437 -0.948362 0)
(-0.815409 -1.11361 0)
(-0.618487 -1.16192 0)
(-0.383387 -1.04727 0)
(-0.159585 -0.744701 0)
(-0.0295908 -0.277478 0)
(-0.0166167 0.274105 0)
(-0.0844604 0.660712 0)
(-0.200581 0.89917 0)
(-0.330574 1.01722 0)
(-0.456724 1.04375 0)
(-0.572908 1.0017 0)
(-0.677301 0.90674 0)
(-0.770164 0.768232 0)
(-0.852456 0.591062 0)
(-0.924621 0.377616 0)
(-0.9856 0.129774 0)
(-1.03193 -0.148932 0)
(-1.05692 -0.450718 0)
(-1.05004 -0.760176 0)
(-0.997455 -1.05008 0)
(-0.884599 -1.27724 0)
(-0.702122 -1.38122 0)
(-0.457946 -1.29176 0)
(-0.202549 -0.953413 0)
(-0.0407831 -0.370284 0)
(-0.019855 0.321076 0)
(-0.0944648 0.762381 0)
(-0.213865 1.02227 0)
(-0.33782 1.14084 0)
(-0.44853 1.15779 0)
(-0.542701 1.10297 0)
(-0.621871 0.995754 0)
(-0.689545 0.847 0)
(-0.749727 0.661629 0)
(-0.805762 0.440953 0)
(-0.859402 0.184788 0)
(-0.909825 -0.10645 0)
(-0.952384 -0.429143 0)
(-0.977178 -0.772698 0)
(-0.968035 -1.11389 0)
(-0.903273 -1.40926 0)
(-0.760328 -1.58782 0)
(-0.53006 -1.55139 0)
(-0.254132 -1.19866 0)
(-0.0566223 -0.490052 0)
(-0.0265084 0.376112 0)
(-0.112922 0.87159 0)
(-0.235514 1.14256 0)
(-0.34635 1.24954 0)
(-0.42953 1.24734 0)
(-0.487114 1.17403 0)
(-0.525678 1.05266 0)
(-0.552911 0.895289 0)
(-0.576357 0.706599 0)
(-0.602596 0.486737 0)
(-0.63663 0.233455 0)
(-0.681094 -0.0560769 0)
(-0.734901 -0.383133 0)
(-0.791104 -0.743944 0)
(-0.834179 -1.12341 0)
(-0.837788 -1.48433 0)
(-0.765633 -1.75237 0)
(-0.584632 -1.80321 0)
(-0.31259 -1.47462 0)
(-0.0788925 -0.64384 0)
(-0.0400123 0.447187 0)
(-0.146932 0.992709 0)
(-0.270694 1.25528 0)
(-0.355595 1.3315 0)
(-0.392869 1.29684 0)
(-0.394221 1.198 0)
(-0.37337 1.0607 0)
(-0.34294 0.897096 0)
(-0.314059 0.71096 0)
(-0.296265 0.501092 0)
(-0.297549 0.263419 0)
(-0.324092 -0.00768163 0)
(-0.379239 -0.318138 0)
(-0.461215 -0.67186 0)
(-0.559142 -1.0653 0)
(-0.647244 -1.47529 0)
(-0.679331 -1.83629 0)
(-0.595286 -2.00903 0)
(-0.370701 -1.76332 0)
(-0.108968 -0.838845 0)
(-0.065728 0.549608 0)
(-0.204788 1.13042 0)
(-0.318418 1.34937 0)
(-0.351123 1.36699 0)
(-0.313337 1.28408 0)
(-0.232476 1.15363 0)
(-0.131016 1.00094 0)
(-0.0262533 0.835953 0)
(0.0681321 0.660241 0)
(0.140939 0.470873 0)
(0.182476 0.262322 0)
(0.184043 0.0271795 0)
(0.138241 -0.243725 0)
(0.040577 -0.560885 0)
(-0.10651 -0.933349 0)
(-0.285282 -1.3585 0)
(-0.449548 -1.79538 0)
(-0.517937 -2.11354 0)
(-0.407939 -2.02768 0)
(-0.144285 -1.08124 0)
(-0.10857 0.712292 0)
(-0.286138 1.28105 0)
(-0.349046 1.39391 0)
(-0.276186 1.31838 0)
(-0.119797 1.17545 0)
(0.0729612 1.0146 0)
(0.27295 0.854243 0)
(0.46137 0.698428 0)
(0.625104 0.544806 0)
(0.754058 0.388318 0)
(0.839274 0.222518 0)
(0.871721 0.0396101 0)
(0.841806 -0.170417 0)
(0.739689 -0.421259 0)
(0.557655 -0.731432 0)
(0.298036 -1.12029 0)
(-0.00890263 -1.58607 0)
(-0.281549 -2.04383 0)
(-0.37616 -2.20135 0)
(-0.167844 -1.37429 0)
(-0.155472 0.978668 0)
(-0.340193 1.40076 0)
(-0.237204 1.30675 0)
(0.033426 1.11504 0)
(0.355085 0.924028 0)
(0.674948 0.754556 0)
(0.970031 0.608878 0)
(1.22843 0.482094 0)
(1.44334 0.367273 0)
(1.60981 0.257642 0)
(1.72271 0.146842 0)
(1.7754 0.0283106 0)
(1.75894 -0.106034 0)
(1.66111 -0.268198 0)
(1.46602 -0.478282 0)
(1.15741 -0.769051 0)
(0.731616 -1.18098 0)
(0.228387 -1.71388 0)
(-0.173246 -2.16022 0)
(-0.118925 -1.67562 0)
(-0.047584 1.26982 0)
(-0.0720963 1.3172 0)
(0.411527 0.969222 0)
(0.958444 0.709761 0)
(1.4299 0.529522 0)
(1.82367 0.398572 0)
(2.14989 0.301268 0)
(2.41491 0.226241 0)
(2.62352 0.164673 0)
(2.77872 0.11018 0)
(2.88101 0.0580529 0)
(2.92792 0.00430951 0)
(2.91374 -0.0552899 0)
(2.82797 -0.127376 0)
(2.65279 -0.224435 0)
(2.35929 -0.373375 0)
(1.90256 -0.630544 0)
(1.22509 -1.07951 0)
(0.453091 -1.68909 0)
(0.21763 -1.70239 0)
(1.43872 0.707425 0)
(1.83626 0.626778 0)
(2.56411 0.398413 0)
(3.13838 0.251759 0)
(3.51291 0.164322 0)
(3.77021 0.109478 0)
(3.95785 0.0740385 0)
(4.09628 0.0502651 0)
(4.19648 0.0331418 0)
(4.26489 0.0195372 0)
(4.30458 0.0075013 0)
(4.31608 -0.00430439 0)
(4.29753 -0.0169579 0)
(4.24415 -0.032183 0)
(4.14614 -0.0531959 0)
(3.98235 -0.0880072 0)
(3.70354 -0.158396 0)
(3.17533 -0.316236 0)
(2.30026 -0.622927 0)
(1.66879 -0.780105 0)
)
;

boundaryField
{
    movingWall
    {
        type            fixedValue;
        value           uniform (5.07561 0 0);
    }
    fixedWalls
    {
        type            noSlip;
    }
    frontAndBack
    {
        type            empty;
    }
}


// ************************************************************************* //
