/*--------------------------------*- C++ -*----------------------------------*\
  =========                 |
  \\      /  F ield         | OpenFOAM: The Open Source CFD Toolbox
   \\    /   O peration     | Website:  https://openfoam.org
    \\  /    A nd           | Version:  8
     \\/     M anipulation  |
\*---------------------------------------------------------------------------*/
FoamFile
{
    version     2.0;
    format      ascii;
    class       volScalarField;
    location    "1";
    object      p;
}
// * * * * * * * * * * * * * * * * * * * * * * * * * * * * * * * * * * * * * //

dimensions      [0 2 -2 0 0 0 0];

internalField   nonuniform List<scalar> 
400
(
-0.0991787
-0.198165
-0.251311
-0.276688
-0.280321
-0.268104
-0.243162
-0.206082
-0.159508
-0.106432
-0.0490874
0.0103416
0.0690888
0.124012
0.172236
0.211716
0.241454
0.261439
0.27245
0.276112
-0.198553
-0.239027
-0.268555
-0.283704
-0.282688
-0.267832
-0.241488
-0.204348
-0.158599
-0.106598
-0.0501623
0.00868435
0.0671615
0.121994
0.170115
0.209302
0.238488
0.257598
0.266996
0.266643
-0.250249
-0.268458
-0.280263
-0.284664
-0.277334
-0.259983
-0.233912
-0.198813
-0.156232
-0.10795
-0.0551142
0.000815329
0.0572531
0.110696
0.157596
0.195304
0.22264
0.239745
0.247186
0.245433
-0.273256
-0.280755
-0.280759
-0.276563
-0.263936
-0.244806
-0.220057
-0.188558
-0.151227
-0.109228
-0.0627978
-0.0124558
0.0397096
0.0900616
0.1345
0.169814
0.194571
0.209036
0.214123
0.210868
-0.278081
-0.279113
-0.271664
-0.26107
-0.244109
-0.223558
-0.200471
-0.17315
-0.142025
-0.107941
-0.0703447
-0.0285808
0.0161818
0.0605597
0.100173
0.131425
0.152647
0.164019
0.166752
0.16228
-0.270393
-0.267687
-0.255776
-0.241094
-0.221155
-0.199777
-0.178676
-0.155786
-0.131034
-0.105466
-0.0783282
-0.0478456
-0.0137785
0.0214345
0.0537113
0.0793596
0.0964365
0.104732
0.1057
0.100954
-0.255818
-0.251881
-0.23831
-0.222264
-0.201293
-0.180003
-0.16121
-0.142798
-0.123702
-0.105622
-0.0887453
-0.0708382
-0.0499856
-0.0268033
-0.004139
0.0147822
0.0277461
0.0337374
0.0341531
0.030432
-0.239686
-0.236844
-0.22455
-0.210337
-0.191028
-0.171303
-0.155353
-0.141964
-0.127911
-0.115232
-0.106389
-0.100097
-0.0930803
-0.0833918
-0.0715384
-0.059489
-0.0496301
-0.0442976
-0.0428333
-0.0445856
-0.224427
-0.22494
-0.216934
-0.208256
-0.194486
-0.179145
-0.167195
-0.160752
-0.152976
-0.144354
-0.14022
-0.142154
-0.146763
-0.149468
-0.147571
-0.14094
-0.131909
-0.124704
-0.120526
-0.120515
-0.208269
-0.213829
-0.212791
-0.213469
-0.21036
-0.204578
-0.198704
-0.202508
-0.205393
-0.202798
-0.201531
-0.20744
-0.219035
-0.230163
-0.234859
-0.230303
-0.218442
-0.205861
-0.197152
-0.196734
-0.185074
-0.196219
-0.20468
-0.218449
-0.23177
-0.244143
-0.248115
-0.265481
-0.285354
-0.295019
-0.29895
-0.306674
-0.320361
-0.334311
-0.340399
-0.333165
-0.313708
-0.29103
-0.274694
-0.274488
-0.145674
-0.162261
-0.184351
-0.216167
-0.250988
-0.293099
-0.314447
-0.347635
-0.388578
-0.417607
-0.432765
-0.444086
-0.457334
-0.469208
-0.471564
-0.45714
-0.425356
-0.386559
-0.356038
-0.352008
-0.081236
-0.104276
-0.14806
-0.207355
-0.266874
-0.347395
-0.39821
-0.450657
-0.511905
-0.562584
-0.594031
-0.612641
-0.625204
-0.631699
-0.626772
-0.603141
-0.556713
-0.495623
-0.439033
-0.418655
0.0130156
-0.0209116
-0.0965179
-0.197943
-0.286008
-0.398622
-0.487326
-0.567382
-0.649543
-0.72132
-0.771678
-0.799414
-0.807398
-0.801383
-0.784317
-0.751907
-0.693506
-0.607716
-0.510146
-0.452787
0.138475
0.0836197
-0.0259266
-0.174961
-0.303466
-0.425975
-0.541651
-0.658139
-0.774405
-0.877968
-0.957484
-0.999895
-0.983743
-0.941499
-0.896671
-0.852306
-0.788398
-0.684932
-0.539681
-0.425761
0.302312
0.209254
0.077968
-0.0842559
-0.265896
-0.397396
-0.527688
-0.689894
-0.875416
-1.05222
-1.18717
-1.2404
-1.18299
-1.05175
-0.917972
-0.82647
-0.753755
-0.65194
-0.480429
-0.310059
0.525199
0.382716
0.239248
0.1167
-0.09265
-0.29225
-0.515486
-0.782941
-1.07177
-1.33373
-1.51634
-1.57704
-1.49668
-1.264
-0.954953
-0.668984
-0.483274
-0.39024
-0.265397
-0.0888804
0.837402
0.69017
0.543529
0.3668
0.0752436
-0.269922
-0.665329
-1.06756
-1.4162
-1.67891
-1.84493
-1.90877
-1.85989
-1.66513
-1.27429
-0.695507
-0.132165
0.200111
0.247564
0.314962
1.45453
1.25548
0.951716
0.481988
-0.106494
-0.6455
-1.08645
-1.4459
-1.73086
-1.94202
-2.08124
-2.14833
-2.13383
-2.00946
-1.72001
-1.17935
-0.310906
0.604559
1.10272
1.19933
2.09991
1.62301
0.83026
-0.00149443
-0.584988
-1.00277
-1.34185
-1.62776
-1.86075
-2.03865
-2.16133
-2.2275
-2.22866
-2.14438
-1.94164
-1.57537
-0.944675
0.126369
1.46164
2.18949
)
;

boundaryField
{
    movingWall
    {
        type            zeroGradient;
    }
    fixedWalls
    {
        type            zeroGradient;
    }
    frontAndBack
    {
        type            empty;
    }
}


// ************************************************************************* //
