/*--------------------------------*- C++ -*----------------------------------*\
  =========                 |
  \\      /  F ield         | OpenFOAM: The Open Source CFD Toolbox
   \\    /   O peration     | Website:  https://openfoam.org
    \\  /    A nd           | Version:  8
     \\/     M anipulation  |
\*---------------------------------------------------------------------------*/
FoamFile
{
    version     2.0;
    format      ascii;
    class       surfaceScalarField;
    location    "1";
    object      phi;
}
// * * * * * * * * * * * * * * * * * * * * * * * * * * * * * * * * * * * * * //

dimensions      [0 3 -1 0 0 0 0];

internalField   nonuniform List<scalar> 
760
(
6.39718e-08
-6.41798e-08
-1.33899e-07
1.97872e-07
-6.01379e-07
4.67484e-07
-1.2497e-06
6.48321e-07
-1.9861e-06
7.36393e-07
-2.72951e-06
7.43413e-07
-3.41104e-06
6.81535e-07
-3.97132e-06
5.60279e-07
-4.35867e-06
3.87342e-07
-4.53031e-06
1.71649e-07
-4.45704e-06
-7.32704e-08
-4.13015e-06
-3.26892e-07
-3.56878e-06
-5.61371e-07
-2.8251e-06
-7.4368e-07
-1.98455e-06
-8.4055e-07
-1.15885e-06
-8.25699e-07
-4.70581e-07
-6.88268e-07
-2.98248e-08
-4.40757e-07
1.02195e-07
-1.32018e-07
1.02197e-07
-1.96272e-07
1.32083e-07
-9.66074e-07
9.67683e-07
-2.25659e-06
1.75801e-06
-3.90576e-06
2.29749e-06
-5.72756e-06
2.5582e-06
-7.54327e-06
2.55912e-06
-9.19143e-06
2.32969e-06
-1.05299e-05
1.89874e-06
-1.14374e-05
1.2949e-06
-1.18191e-05
5.53346e-07
-1.16162e-05
-2.76208e-07
-1.08189e-05
-1.12417e-06
-9.47929e-06
-1.90101e-06
-7.71842e-06
-2.50455e-06
-5.72414e-06
-2.83483e-06
-3.73417e-06
-2.81568e-06
-2.00248e-06
-2.41996e-06
-7.50111e-07
-1.69313e-06
-1.0326e-07
-7.78875e-07
-1.06046e-09
-5.06105e-07
6.38193e-07
-1.89222e-06
2.35379e-06
-3.96689e-06
3.83268e-06
-6.48973e-06
4.82033e-06
-9.20798e-06
5.27644e-06
-1.18795e-05
5.23066e-06
-1.4283e-05
4.73316e-06
-1.62221e-05
3.83788e-06
-1.75302e-05
2.603e-06
-1.80784e-05
1.10152e-06
-1.77884e-05
-5.66154e-07
-1.66487e-05
-2.26388e-06
-1.47293e-05
-3.82045e-06
-1.21911e-05
-5.0427e-06
-9.28389e-06
-5.74207e-06
-6.32575e-06
-5.77382e-06
-3.66246e-06
-5.08325e-06
-1.6074e-06
-3.74819e-06
-3.71304e-07
-2.01497e-06
-3.72363e-07
-7.89375e-07
1.42757e-06
-2.76824e-06
4.33266e-06
-5.58711e-06
6.65155e-06
-8.91182e-06
8.14504e-06
-1.2427e-05
8.79164e-06
-1.58429e-05
8.64655e-06
-1.88981e-05
7.78836e-06
-2.13613e-05
6.30104e-06
-2.30351e-05
4.27682e-06
-2.37651e-05
1.83154e-06
-2.34537e-05
-8.77552e-07
-2.20779e-05
-3.63971e-06
-1.97076e-05
-6.19076e-06
-1.65198e-05
-8.2305e-06
-1.28014e-05
-9.46048e-06
-8.93309e-06
-9.64209e-06
-5.34857e-06
-8.66777e-06
-2.46903e-06
-6.62772e-06
-6.26158e-07
-3.85784e-06
-9.98521e-07
-1.04174e-06
2.46931e-06
-3.56956e-06
6.86048e-06
-7.08247e-06
1.01645e-05
-1.11495e-05
1.22121e-05
-1.53953e-05
1.30374e-05
-1.94915e-05
1.27428e-05
-2.31495e-05
1.14464e-05
-2.61155e-05
9.26702e-06
-2.81706e-05
6.33192e-06
-2.91376e-05
2.79856e-06
-2.88944e-05
-1.12077e-06
-2.73932e-05
-5.14096e-06
-2.46836e-05
-8.90027e-06
-2.09358e-05
-1.19784e-05
-1.64541e-05
-1.39421e-05
-1.16734e-05
-1.44228e-05
-7.12411e-06
-1.32171e-05
-3.36239e-06
-1.03894e-05
-8.76989e-07
-6.34324e-06
-1.87551e-06
-1.26669e-06
3.73599e-06
-4.29389e-06
9.88769e-06
-8.44326e-06
1.43138e-05
-1.31921e-05
1.69609e-05
-1.81104e-05
1.79556e-05
-2.28395e-05
1.74719e-05
-2.70738e-05
1.56808e-05
-3.05471e-05
1.27403e-05
-3.30256e-05
8.81044e-06
-3.43105e-05
4.08348e-06
-3.42486e-05
-1.18269e-06
-3.27524e-05
-6.63717e-06
-2.98293e-05
-1.18234e-05
-2.56162e-05
-1.61914e-05
-2.04125e-05
-1.91458e-05
-1.4696e-05
-2.01393e-05
-9.10329e-06
-1.88098e-05
-4.35823e-06
-1.51345e-05
-1.15172e-06
-9.54976e-06
-3.02723e-06
-1.46655e-06
5.20254e-06
-4.9405e-06
1.33616e-05
-9.66036e-06
1.90337e-05
-1.50202e-05
2.23208e-05
-2.0543e-05
2.34784e-05
-2.58497e-05
2.27786e-05
-3.06286e-05
2.04597e-05
-3.46114e-05
1.67231e-05
-3.75578e-05
1.17568e-05
-3.92502e-05
5.77587e-06
-3.94999e-05
-9.33008e-07
-3.81663e-05
-7.97074e-06
-3.51913e-05
-1.47983e-05
-3.0648e-05
-2.07347e-05
-2.47974e-05
-2.49964e-05
-1.8137e-05
-2.67997e-05
-1.14096e-05
-2.55372e-05
-5.5402e-06
-2.10039e-05
-1.48268e-06
-1.36073e-05
-4.50991e-06
-1.64198e-06
6.84452e-06
-5.50642e-06
1.72261e-05
-1.07192e-05
2.42465e-05
-1.65994e-05
2.82009e-05
-2.26325e-05
2.95116e-05
-2.84308e-05
2.85768e-05
-3.36899e-05
2.57188e-05
-3.81534e-05
2.11866e-05
-4.15863e-05
1.51898e-05
-4.37608e-05
7.95033e-06
-4.44544e-05
-2.39363e-07
-4.34655e-05
-8.95966e-06
-4.06492e-05
-1.76146e-05
-3.59792e-05
-2.54048e-05
-2.96321e-05
-3.13435e-05
-2.20797e-05
-3.43521e-05
-1.41492e-05
-3.34677e-05
-6.99188e-06
-2.81612e-05
-1.90392e-06
-1.86952e-05
-6.41383e-06
-1.79377e-06
8.63829e-06
-5.98963e-06
2.1422e-05
-1.16038e-05
2.98607e-05
-1.78851e-05
3.44822e-05
-2.4292e-05
3.59186e-05
-3.04425e-05
3.47273e-05
-3.60571e-05
3.13334e-05
-4.09095e-05
2.6039e-05
-4.47888e-05
1.90691e-05
-4.74733e-05
1.06348e-05
-4.87187e-05
1.00606e-06
-4.82647e-05
-9.41373e-06
-4.58663e-05
-2.0013e-05
-4.13622e-05
-2.99088e-05
-3.47853e-05
-3.79204e-05
-2.65081e-05
-4.26293e-05
-1.73831e-05
-4.25927e-05
-8.78762e-06
-3.67567e-05
-2.45106e-06
-2.50318e-05
-8.86488e-06
-1.92718e-06
1.05655e-05
-6.39843e-06
2.58932e-05
-1.23088e-05
3.57711e-05
-1.88356e-05
4.1009e-05
-2.54216e-05
4.25046e-05
-3.17093e-05
4.10149e-05
-3.7466e-05
3.70901e-05
-4.25202e-05
3.10932e-05
-4.67103e-05
2.32591e-05
-4.98471e-05
1.37716e-05
-5.16894e-05
2.84839e-06
-5.19361e-05
-9.16707e-06
-5.02445e-05
-2.17045e-05
-4.62928e-05
-3.38605e-05
-3.99046e-05
-4.43087e-05
-3.12497e-05
-5.12842e-05
-2.10928e-05
-5.27496e-05
-1.09821e-05
-4.68673e-05
-3.16279e-06
-3.28511e-05
-1.20277e-05
-2.05923e-06
1.26247e-05
-6.76673e-06
3.06007e-05
-1.28584e-05
4.18627e-05
-1.9431e-05
4.75816e-05
-2.59269e-05
4.90005e-05
-3.20388e-05
4.71268e-05
-3.76099e-05
4.26613e-05
-4.2553e-05
3.60363e-05
-4.67877e-05
2.74938e-05
-5.01926e-05
1.71765e-05
-5.25677e-05
5.22343e-06
-5.36084e-05
-8.12631e-06
-5.29011e-05
-2.24118e-05
-4.99606e-05
-3.6801e-05
-4.43471e-05
-4.99222e-05
-3.59036e-05
-5.97277e-05
-2.51291e-05
-6.35242e-05
-1.35929e-05
-5.84035e-05
-4.08302e-06
-4.2361e-05
-1.61107e-05
-2.2302e-06
1.48549e-05
-7.17489e-06
3.55454e-05
-1.33277e-05
4.80155e-05
-1.9691e-05
5.39449e-05
-2.57335e-05
5.50431e-05
-3.12373e-05
5.26305e-05
-3.61592e-05
4.75832e-05
-4.05312e-05
4.04083e-05
-4.43888e-05
3.13515e-05
-4.77179e-05
2.05056e-05
-5.04076e-05
7.91308e-06
-5.22059e-05
-6.32799e-06
-5.26842e-05
-2.19335e-05
-5.12307e-05
-3.82546e-05
-4.71233e-05
-5.40296e-05
-3.97611e-05
-6.70899e-05
-2.91412e-05
-7.41441e-05
-1.65686e-05
-7.09761e-05
-5.26274e-06
-5.36669e-05
-2.13734e-05
-2.5224e-06
1.73773e-05
-7.77546e-06
4.07985e-05
-1.38586e-05
5.40986e-05
-1.96745e-05
5.97608e-05
-2.47757e-05
6.01443e-05
-2.90959e-05
5.69508e-05
-3.27557e-05
5.1243e-05
-3.59436e-05
4.35961e-05
-3.88436e-05
3.42515e-05
-4.15843e-05
2.32463e-05
-4.41911e-05
1.05199e-05
-4.65306e-05
-3.98855e-06
-4.82429e-05
-2.02212e-05
-4.86761e-05
-3.78213e-05
-4.68739e-05
-5.58318e-05
-4.17283e-05
-7.22355e-05
-3.2481e-05
-8.33914e-05
-1.9731e-05
-8.3726e-05
-6.75833e-06
-6.66396e-05
-2.81318e-05
-3.09003e-06
2.04673e-05
-8.81553e-06
4.6524e-05
-1.46422e-05
5.99253e-05
-1.94219e-05
6.45405e-05
-2.29125e-05
6.36349e-05
-2.52998e-05
5.93381e-05
-2.69318e-05
5.28749e-05
-2.81891e-05
4.48535e-05
-2.94248e-05
3.54871e-05
-3.09289e-05
2.47504e-05
-3.28947e-05
1.24857e-05
-3.53643e-05
-1.51892e-06
-3.81428e-05
-1.74428e-05
-4.06719e-05
-3.52922e-05
-4.19012e-05
-5.46025e-05
-4.02707e-05
-7.38659e-05
-3.40826e-05
-8.95795e-05
-2.26715e-05
-9.51371e-05
-8.6141e-06
-8.0697e-05
-3.67459e-05
-4.20031e-06
2.46676e-05
-1.06211e-05
5.29448e-05
-1.57957e-05
6.50998e-05
-1.87436e-05
6.74884e-05
-1.96712e-05
6.45626e-05
-1.91649e-05
5.88318e-05
-1.78691e-05
5.15791e-05
-1.63769e-05
4.33612e-05
-1.52037e-05
3.43139e-05
-1.47877e-05
2.43344e-05
-1.54849e-05
1.31829e-05
-1.7537e-05
5.33174e-07
-2.09893e-05
-1.39904e-05
-2.55324e-05
-3.07491e-05
-3.02555e-05
-4.98795e-05
-3.33841e-05
-7.07373e-05
-3.23045e-05
-9.06591e-05
-2.45555e-05
-0.000102886
-1.07879e-05
-9.44646e-05
-4.75338e-05
-6.24667e-06
3.09143e-05
-1.34052e-05
6.01033e-05
-1.69239e-05
6.86185e-05
-1.66376e-05
6.72022e-05
-1.36275e-05
6.15524e-05
-9.05133e-06
5.42556e-05
-3.88366e-06
4.64115e-05
1.10211e-06
3.83755e-05
5.28649e-06
3.01296e-05
8.14766e-06
2.14733e-05
9.22492e-06
1.21057e-05
8.1125e-06
1.6456e-06
4.50869e-06
-1.03866e-05
-1.64554e-06
-2.45949e-05
-9.86095e-06
-4.16641e-05
-1.8593e-05
-6.20053e-05
-2.47113e-05
-8.45407e-05
-2.37499e-05
-0.000103847
-1.29144e-05
-0.0001053
-6.04482e-05
-9.56139e-06
4.04757e-05
-1.64267e-05
6.69686e-05
-1.58215e-05
6.80133e-05
-9.88941e-06
6.12701e-05
-1.12563e-06
5.27887e-05
8.70435e-06
4.44257e-05
1.84205e-05
3.66953e-05
2.72257e-05
2.95702e-05
3.45432e-05
2.28121e-05
3.9898e-05
1.61184e-05
4.28401e-05
9.16356e-06
4.29013e-05
1.58445e-06
3.95935e-05
-7.07885e-06
3.24724e-05
-1.74737e-05
2.13813e-05
-3.0573e-05
7.05433e-06
-4.76784e-05
-7.769e-06
-6.97174e-05
-1.72134e-05
-9.4403e-05
-1.37633e-05
-0.00010875
-7.42115e-05
-1.34308e-05
5.39065e-05
-1.5081e-05
6.86189e-05
-5.09727e-06
5.80295e-05
9.81188e-06
4.6361e-05
2.58434e-05
3.67571e-05
4.12133e-05
2.90558e-05
5.50414e-05
2.28672e-05
6.68637e-05
1.77479e-05
7.63918e-05
1.3284e-05
8.33743e-05
9.13593e-06
8.75168e-05
5.02106e-06
8.84272e-05
6.74062e-07
8.558e-05
-4.23166e-06
7.82691e-05
-1.01628e-05
6.56656e-05
-1.79696e-05
4.71896e-05
-2.92024e-05
2.37951e-05
-4.63229e-05
7.11094e-07
-7.1319e-05
-1.02176e-05
-9.78215e-05
-8.44291e-05
-9.40948e-06
6.3316e-05
8.82281e-06
5.03866e-05
3.51834e-05
3.16689e-05
6.00399e-05
2.15045e-05
8.14884e-05
1.53086e-05
9.94582e-05
1.1086e-05
0.000114208
8.11749e-06
0.000126021
5.93452e-06
0.000135103
4.20236e-06
0.000141537
2.7016e-06
0.000145273
1.2849e-06
0.000146105
-1.57145e-07
0.00014364
-1.7669e-06
0.000137178
-3.7005e-06
0.000125546
-6.33846e-06
0.000106897
-1.05527e-05
7.90789e-05
-1.85049e-05
4.2294e-05
-3.45341e-05
6.89792e-06
-6.24254e-05
-7.75312e-05
6.3316e-05
0.000113703
0.000145371
0.000166876
0.000182185
0.000193271
0.000201388
0.000207323
0.000211525
0.000214227
0.000215511
0.000215354
0.000213587
0.000209887
0.000203548
0.000192996
0.000174491
0.000139957
7.75312e-05
)
;

boundaryField
{
    movingWall
    {
        type            calculated;
        value           uniform 0;
    }
    fixedWalls
    {
        type            calculated;
        value           uniform 0;
    }
    frontAndBack
    {
        type            empty;
        value           nonuniform List<scalar> 0();
    }
}


// ************************************************************************* //
