/*--------------------------------*- C++ -*----------------------------------*\
  =========                 |
  \\      /  F ield         | OpenFOAM: The Open Source CFD Toolbox
   \\    /   O peration     | Website:  https://openfoam.org
    \\  /    A nd           | Version:  8
     \\/     M anipulation  |
\*---------------------------------------------------------------------------*/
FoamFile
{
    version     2.0;
    format      ascii;
    class       volVectorField;
    location    "1";
    object      U;
}
// * * * * * * * * * * * * * * * * * * * * * * * * * * * * * * * * * * * * * //

dimensions      [0 1 -1 0 0 0 0];

internalField   nonuniform List<vector> 
400
(
(0.00120366 -0.0012082 0)
(0.000401134 0.000672878 0)
(-0.00645147 0.00286752 0)
(-0.0179689 0.0043407 0)
(-0.0321754 0.00506953 0)
(-0.0472984 0.00518576 0)
(-0.061833 0.00480628 0)
(-0.0744969 0.00400766 0)
(-0.0841766 0.00283762 0)
(-0.0899143 0.00134573 0)
(-0.0909676 -0.000383525 0)
(-0.086931 -0.00220722 0)
(-0.0778873 -0.00391667 0)
(-0.0645427 -0.00525313 0)
(-0.0482905 -0.00594643 0)
(-0.0311506 -0.0057737 0)
(-0.0155472 -0.00462908 0)
(-0.00390955 -0.00259453 0)
(0.00189199 -8.66987e-05 0)
(0.00157725 0.0015245 0)
(-0.00062336 -0.000512652 0)
(-0.00896421 0.00883955 0)
(-0.0300571 0.0184035 0)
(-0.0603865 0.0249859 0)
(-0.0959829 0.0282394 0)
(-0.133172 0.0284701 0)
(-0.168541 0.0260745 0)
(-0.199039 0.0213988 0)
(-0.222011 0.0147513 0)
(-0.235262 0.00649973 0)
(-0.237201 -0.00281659 0)
(-0.227088 -0.0124098 0)
(-0.205304 -0.0212358 0)
(-0.173569 -0.028078 0)
(-0.135018 -0.0317291 0)
(-0.0940214 -0.0312552 0)
(-0.0556706 -0.0263059 0)
(-0.0249212 -0.0174133 0)
(-0.00570007 -0.00641534 0)
(0.000312544 0.00208299 0)
(-0.00307557 0.00649729 0)
(-0.0201061 0.0303316 0)
(-0.0555797 0.0520764 0)
(-0.102992 0.0669027 0)
(-0.156661 0.0739973 0)
(-0.211702 0.0737886 0)
(-0.263487 0.0670357 0)
(-0.307807 0.0545333 0)
(-0.341 0.0371116 0)
(-0.360058 0.0158047 0)
(-0.362846 -0.00794535 0)
(-0.348395 -0.0321546 0)
(-0.317235 -0.0543064 0)
(-0.271661 -0.0715527 0)
(-0.215831 -0.0811239 0)
(-0.155568 -0.0809221 0)
(-0.0977104 -0.0702157 0)
(-0.0490457 -0.05028 0)
(-0.0155796 -0.0250318 0)
(-0.00167174 -0.00260526 0)
(-0.00527216 0.0195504 0)
(-0.0305695 0.064236 0)
(-0.079878 0.101427 0)
(-0.143255 0.125954 0)
(-0.213215 0.13702 0)
(-0.283899 0.135375 0)
(-0.349847 0.122254 0)
(-0.406099 0.0990101 0)
(-0.448333 0.067131 0)
(-0.472978 0.0284929 0)
(-0.477441 -0.0143416 0)
(-0.460434 -0.0579271 0)
(-0.422357 -0.0979543 0)
(-0.365637 -0.129565 0)
(-0.294946 -0.148004 0)
(-0.217096 -0.149586 0)
(-0.140417 -0.132848 0)
(-0.0736199 -0.0996049 0)
(-0.0253398 -0.0557556 0)
(-0.00346095 -0.0125728 0)
(-0.00717318 0.037969 0)
(-0.0400222 0.109534 0)
(-0.102248 0.165039 0)
(-0.180485 0.200205 0)
(-0.265439 0.214974 0)
(-0.350402 0.210806 0)
(-0.429315 0.189605 0)
(-0.496739 0.153373 0)
(-0.547923 0.104308 0)
(-0.578863 0.0451596 0)
(-0.586492 -0.0203525 0)
(-0.569016 -0.0872532 0)
(-0.526352 -0.149296 0)
(-0.460612 -0.199337 0)
(-0.376515 -0.230195 0)
(-0.281548 -0.236 0)
(-0.185513 -0.213895 0)
(-0.0994136 -0.16565 0)
(-0.0352328 -0.0987676 0)
(-0.00511009 -0.027524 0)
(-0.00883633 0.06116 0)
(-0.0484977 0.165322 0)
(-0.122547 0.241957 0)
(-0.214432 0.288676 0)
(-0.313159 0.306908 0)
(-0.411295 0.299292 0)
(-0.502377 0.268651 0)
(-0.580706 0.217732 0)
(-0.641285 0.149424 0)
(-0.679762 0.0672682 0)
(-0.692547 -0.0239736 0)
(-0.677126 -0.117884 0)
(-0.632556 -0.206254 0)
(-0.560124 -0.279421 0)
(-0.464075 -0.327243 0)
(-0.352187 -0.34082 0)
(-0.235682 -0.314858 0)
(-0.128278 -0.250121 0)
(-0.0462059 -0.155196 0)
(-0.00687314 -0.0476257 0)
(-0.0103017 0.0885997 0)
(-0.0560405 0.230593 0)
(-0.14069 0.330999 0)
(-0.244808 0.390154 0)
(-0.355876 0.411703 0)
(-0.465901 0.399975 0)
(-0.568226 0.358992 0)
(-0.657117 0.292327 0)
(-0.727529 0.203489 0)
(-0.774884 0.0966166 0)
(-0.795066 -0.0227477 0)
(-0.784665 -0.147 0)
(-0.741511 -0.266106 0)
(-0.665507 -0.367748 0)
(-0.559752 -0.438257 0)
(-0.431691 -0.464621 0)
(-0.293655 -0.437625 0)
(-0.162373 -0.355526 0)
(-0.0594133 -0.227129 0)
(-0.00904805 -0.0736656 0)
(-0.011589 0.119793 0)
(-0.0626595 0.304258 0)
(-0.156541 0.430737 0)
(-0.27116 0.503053 0)
(-0.392667 0.527799 0)
(-0.512716 0.511531 0)
(-0.624713 0.459776 0)
(-0.723168 0.377014 0)
(-0.80326 0.267256 0)
(-0.860399 0.134954 0)
(-0.890059 -0.013975 0)
(-0.887886 -0.171188 0)
(-0.8502 -0.325187 0)
(-0.774959 -0.461074 0)
(-0.663265 -0.561194 0)
(-0.52124 -0.607209 0)
(-0.361527 -0.584002 0)
(-0.203772 -0.485033 0)
(-0.0760833 -0.317696 0)
(-0.0119631 -0.107108 0)
(-0.0127186 0.154249 0)
(-0.0683826 0.385151 0)
(-0.169982 0.539485 0)
(-0.292949 0.62531 0)
(-0.422276 0.652954 0)
(-0.549511 0.631803 0)
(-0.668452 0.569233 0)
(-0.774219 0.470726 0)
(-0.862586 0.340658 0)
(-0.929319 0.183451 0)
(-0.969775 0.00487066 0)
(-0.978826 -0.18665 0)
(-0.951203 -0.378805 0)
(-0.882453 -0.554552 0)
(-0.770729 -0.692121 0)
(-0.619431 -0.76672 0)
(-0.439991 -0.754924 0)
(-0.254119 -0.642018 0)
(-0.0974763 -0.430964 0)
(-0.0160004 -0.150121 0)
(-0.0137584 0.191522 0)
(-0.0734002 0.472086 0)
(-0.181139 0.655269 0)
(-0.309813 0.754213 0)
(-0.44338 0.78393 0)
(-0.573604 0.757349 0)
(-0.695093 0.68411 0)
(-0.80405 0.570823 0)
(-0.897343 0.422106 0)
(-0.971614 0.241992 0)
(-1.02263 0.0355002 0)
(-1.04496 -0.189671 0)
(-1.03198 -0.421393 0)
(-0.976655 -0.641432 0)
(-0.87333 -0.824397 0)
(-0.720956 -0.938396 0)
(-0.527361 -0.949153 0)
(-0.314197 -0.829146 0)
(-0.124872 -0.571632 0)
(-0.0216478 -0.205626 0)
(-0.0149036 0.231356 0)
(-0.0783042 0.564041 0)
(-0.190736 0.775869 0)
(-0.321948 0.886248 0)
(-0.454966 0.916166 0)
(-0.582225 0.882995 0)
(-0.699716 0.799119 0)
(-0.80531 0.672444 0)
(-0.897583 0.507748 0)
(-0.974714 0.308356 0)
(-1.03363 0.0779557 0)
(-1.06935 -0.177407 0)
(-1.07464 -0.447063 0)
(-1.0402 -0.713144 0)
(-0.95609 -0.948062 0)
(-0.8151 -1.11323 0)
(-0.618244 -1.16151 0)
(-0.383233 -1.04689 0)
(-0.159521 -0.744435 0)
(-0.029579 -0.277385 0)
(-0.0166138 0.274028 0)
(-0.0844452 0.660532 0)
(-0.200544 0.898926 0)
(-0.33051 1.01694 0)
(-0.456633 1.04345 0)
(-0.572788 1.00141 0)
(-0.677152 0.906455 0)
(-0.769985 0.767968 0)
(-0.852246 0.590834 0)
(-0.924379 0.377438 0)
(-0.985325 0.129664 0)
(-1.03163 -0.148955 0)
(-1.05659 -0.450637 0)
(-1.04969 -0.759977 0)
(-0.997103 -1.04976 0)
(-0.884269 -1.27681 0)
(-0.701847 -1.38073 0)
(-0.45776 -1.29128 0)
(-0.202464 -0.953062 0)
(-0.0407659 -0.370153 0)
(-0.0198522 0.320992 0)
(-0.0944508 0.762184 0)
(-0.213832 1.02201 0)
(-0.337765 1.14054 0)
(-0.448453 1.15747 0)
(-0.542603 1.10265 0)
(-0.621752 0.995441 0)
(-0.689404 0.846709 0)
(-0.749563 0.661372 0)
(-0.805572 0.440745 0)
(-0.859185 0.184647 0)
(-0.909577 -0.106504 0)
(-0.952107 -0.429088 0)
(-0.976873 -0.772516 0)
(-0.967712 -1.11357 0)
(-0.902951 -1.4088 0)
(-0.760038 -1.58726 0)
(-0.529846 -1.55082 0)
(-0.254023 -1.19821 0)
(-0.0565974 -0.489871 0)
(-0.0265048 0.37602 0)
(-0.112907 0.871377 0)
(-0.235482 1.14227 0)
(-0.346301 1.24922 0)
(-0.429466 1.247 0)
(-0.487038 1.17369 0)
(-0.525593 1.05233 0)
(-0.552815 0.89498 0)
(-0.576251 0.706322 0)
(-0.602476 0.486506 0)
(-0.636493 0.233288 0)
(-0.680935 -0.05616 0)
(-0.734715 -0.38311 0)
(-0.790885 -0.743793 0)
(-0.833928 -1.1231 0)
(-0.837512 -1.48388 0)
(-0.765358 -1.75178 0)
(-0.584404 -1.80255 0)
(-0.312458 -1.47406 0)
(-0.0788572 -0.643593 0)
(-0.0400061 0.447085 0)
(-0.14691 0.992479 0)
(-0.270655 1.25497 0)
(-0.355544 1.33117 0)
(-0.392813 1.2965 0)
(-0.394165 1.19766 0)
(-0.373319 1.06037 0)
(-0.342895 0.896784 0)
(-0.31402 0.710678 0)
(-0.296231 0.500853 0)
(-0.297514 0.263238 0)
(-0.32405 -0.00778562 0)
(-0.379179 -0.318145 0)
(-0.461126 -0.671745 0)
(-0.55901 -1.06504 0)
(-0.647065 -1.47486 0)
(-0.679115 -1.83569 0)
(-0.595072 -2.00832 0)
(-0.370551 -1.76265 0)
(-0.108921 -0.838515 0)
(-0.0657154 0.54949 0)
(-0.20475 1.13017 0)
(-0.31836 1.34906 0)
(-0.351059 1.36665 0)
(-0.313281 1.28374 0)
(-0.232438 1.15329 0)
(-0.131003 1.00062 0)
(-0.0262679 0.835657 0)
(0.0680888 0.659975 0)
(0.140869 0.470646 0)
(0.182385 0.262147 0)
(0.18394 0.02707 0)
(0.13814 -0.243752 0)
(0.0404964 -0.560807 0)
(-0.106549 -0.93314 0)
(-0.285257 -1.35813 0)
(-0.449448 -1.79482 0)
(-0.517781 -2.11282 0)
(-0.407789 -2.02692 0)
(-0.144226 -1.08081 0)
(-0.108544 0.712141 0)
(-0.28607 1.28077 0)
(-0.348958 1.39359 0)
(-0.276107 1.31805 0)
(-0.119749 1.17513 0)
(0.0729645 1.0143 0)
(0.272902 0.853963 0)
(0.461268 0.698172 0)
(0.624947 0.54458 0)
(0.75385 0.388127 0)
(0.839023 0.22237 0)
(0.871437 0.0395146 0)
(0.841507 -0.170448 0)
(0.739397 -0.421209 0)
(0.557399 -0.731281 0)
(0.29785 -1.12 0)
(-0.00898404 -1.58561 0)
(-0.281514 -2.04317 0)
(-0.376051 -2.20056 0)
(-0.167785 -1.37376 0)
(-0.155425 0.978446 0)
(-0.340086 1.40044 0)
(-0.237102 1.30643 0)
(0.0334759 1.11475 0)
(0.355062 0.923766 0)
(0.674845 0.75432 0)
(0.969843 0.608668 0)
(1.22816 0.481909 0)
(1.44299 0.367113 0)
(1.60939 0.25751 0)
(1.72223 0.146741 0)
(1.77488 0.028247 0)
(1.75839 -0.106054 0)
(1.66056 -0.268166 0)
(1.4655 -0.478186 0)
(1.15696 -0.768867 0)
(0.73128 -1.18066 0)
(0.22822 -1.71335 0)
(-0.173245 -2.15948 0)
(-0.118903 -1.67501 0)
(-0.0475404 1.26949 0)
(-0.0720221 1.31687 0)
(0.411494 0.968973 0)
(0.95828 0.709564 0)
(1.42961 0.52936 0)
(1.82326 0.398437 0)
(2.14938 0.301155 0)
(2.41431 0.226147 0)
(2.62283 0.164595 0)
(2.77797 0.11012 0)
(2.8802 0.0580098 0)
(2.92706 0.00428571 0)
(2.91286 -0.0552925 0)
(2.82709 -0.127354 0)
(2.65194 -0.224385 0)
(2.3585 -0.373286 0)
(1.90189 -0.630385 0)
(1.2246 -1.07921 0)
(0.452863 -1.68856 0)
(0.217514 -1.70182 0)
(1.43831 0.707224 0)
(1.83576 0.626599 0)
(2.56343 0.398292 0)
(3.13754 0.251676 0)
(3.51196 0.164263 0)
(3.76917 0.109435 0)
(3.95674 0.0740062 0)
(4.09512 0.0502409 0)
(4.19527 0.0331238 0)
(4.26364 0.0195245 0)
(4.30331 0.00749373 0)
(4.31479 -0.00430652 0)
(4.29623 -0.0169548 0)
(4.24286 -0.032174 0)
(4.14488 -0.0531804 0)
(3.98113 -0.0879838 0)
(3.7024 -0.158358 0)
(3.17432 -0.316161 0)
(2.29951 -0.622756 0)
(1.66825 -0.779868 0)
)
;

boundaryField
{
    movingWall
    {
        type            fixedValue;
        value           uniform (5.07408 0 0);
    }
    fixedWalls
    {
        type            noSlip;
    }
    frontAndBack
    {
        type            empty;
    }
}


// ************************************************************************* //
