/*--------------------------------*- C++ -*----------------------------------*\
  =========                 |
  \\      /  F ield         | OpenFOAM: The Open Source CFD Toolbox
   \\    /   O peration     | Website:  https://openfoam.org
    \\  /    A nd           | Version:  9
     \\/     M anipulation  |
\*---------------------------------------------------------------------------*/
FoamFile
{
    format      ascii;
    class       surfaceScalarField;
    location    "0.095";
    object      phi;
}
// * * * * * * * * * * * * * * * * * * * * * * * * * * * * * * * * * * * * * //

dimensions      [0 3 -1 0 0 0 0];

internalField   nonuniform List<scalar> 
66
(
-2.37291e-05
-2.19813e-05
-2.42857e-05
-2.78727e-05
-2.73199e-05
-2.13851e-05
-3.07733e-05
-1.43577e-05
-3.11158e-05
-7.65165e-06
-2.7794e-05
-2.3532e-06
-2.06151e-05
-8.50789e-06
-3.21464e-05
-3.27722e-05
-2.51791e-05
-3.77406e-05
-1.72692e-05
-3.90258e-05
-9.39708e-06
-3.56661e-05
-2.94396e-06
-2.70683e-05
-1.14518e-05
-3.62246e-05
-3.80091e-05
-2.90808e-05
-4.48844e-05
-2.0487e-05
-4.76195e-05
-1.14641e-05
-4.4689e-05
-3.69877e-06
-3.48336e-05
-1.51506e-05
-3.95665e-05
-4.26196e-05
-3.27091e-05
-5.17418e-05
-2.38121e-05
-5.65165e-05
-1.38033e-05
-5.46978e-05
-4.63294e-06
-4.4004e-05
-1.97836e-05
-4.13462e-05
-4.60875e-05
-3.54068e-05
-5.76813e-05
-2.6844e-05
-6.50793e-05
-1.62632e-05
-6.52786e-05
-5.7369e-06
-5.45302e-05
-2.55205e-05
-4.04378e-05
-4.78695e-05
-3.62413e-05
-6.18778e-05
-2.89272e-05
-1.85516e-05
-6.97233e-06
-3.54797e-05
)
;

boundaryField
{
    movingWall
    {
        type            calculated;
        value           nonuniform List<scalar> 0();
    }
    fixedWalls
    {
        type            calculated;
        value           uniform 0;
    }
    frontAndBack
    {
        type            empty;
        value           nonuniform List<scalar> 0();
    }
    procBoundary8to5
    {
        type            processor;
        value           nonuniform List<scalar> 4(2.87274e-05 3.32113e-05 3.75987e-05 4.14615e-05);
    }
    procBoundary8to6
    {
        type            processor;
        value           nonuniform List<scalar> 4(4.4177e-05 4.48141e-05 4.22198e-05 3.50564e-05);
    }
    procBoundary8to7
    {
        type            processor;
        value           nonuniform List<scalar> 7(1.69831e-05 1.84631e-05 -1.79065e-05 2.40884e-05 2.10879e-05 1.53167e-05 6.15469e-06);
    }
    procBoundary8to9
    {
        type            processor;
        value           nonuniform List<scalar> 7(-7.23934e-05 -7.56542e-05 -6.61095e-05 -3.24928e-05 -4.74462e-05 -3.393e-05 -6.34275e-05);
    }
}


// ************************************************************************* //
