/*--------------------------------*- C++ -*----------------------------------*\
  =========                 |
  \\      /  F ield         | OpenFOAM: The Open Source CFD Toolbox
   \\    /   O peration     | Website:  https://openfoam.org
    \\  /    A nd           | Version:  8
     \\/     M anipulation  |
\*---------------------------------------------------------------------------*/
FoamFile
{
    version     2.0;
    format      ascii;
    class       volScalarField;
    location    "1";
    object      p;
}
// * * * * * * * * * * * * * * * * * * * * * * * * * * * * * * * * * * * * * //

dimensions      [0 2 -2 0 0 0 0];

internalField   nonuniform List<scalar> 
400
(
-0.0991844
-0.198177
-0.251326
-0.276705
-0.280339
-0.268123
-0.243181
-0.2061
-0.159525
-0.106447
-0.0491012
0.0103297
0.0690788
0.124003
0.17223
0.21171
0.24145
0.261435
0.272446
0.276108
-0.198564
-0.239041
-0.268571
-0.283721
-0.282706
-0.26785
-0.241506
-0.204366
-0.158616
-0.106613
-0.0501763
0.00867222
0.0671513
0.121986
0.170108
0.209297
0.238483
0.257593
0.266992
0.266639
-0.250263
-0.268473
-0.280279
-0.284681
-0.277351
-0.260001
-0.233929
-0.19883
-0.156249
-0.107966
-0.0551285
0.000802772
0.0572425
0.110687
0.157589
0.195298
0.222634
0.23974
0.24718
0.245427
-0.27327
-0.28077
-0.280774
-0.276578
-0.263952
-0.244822
-0.220073
-0.188575
-0.151244
-0.109244
-0.0628126
-0.012469
0.0396982
0.0900519
0.134492
0.169807
0.194564
0.209029
0.214115
0.21086
-0.278096
-0.279127
-0.271678
-0.261085
-0.244123
-0.223573
-0.200487
-0.173165
-0.142041
-0.107957
-0.0703599
-0.0285949
0.0161692
0.0605486
0.100163
0.131415
0.152637
0.164008
0.16674
0.162267
-0.270407
-0.2677
-0.25579
-0.241107
-0.221168
-0.19979
-0.17869
-0.1558
-0.131049
-0.105482
-0.078344
-0.0478608
-0.0137928
0.0214211
0.0536984
0.0793465
0.0964225
0.104716
0.105684
0.100936
-0.25583
-0.251893
-0.238322
-0.222276
-0.201305
-0.180015
-0.161223
-0.142811
-0.123717
-0.105638
-0.0887623
-0.0708554
-0.0500026
-0.02682
-0.00415601
0.0147643
0.0277267
0.033716
0.0341298
0.0304074
-0.239697
-0.236855
-0.224561
-0.210348
-0.191039
-0.171315
-0.155366
-0.141979
-0.127928
-0.11525
-0.106408
-0.100117
-0.0931011
-0.0834135
-0.0715612
-0.0595133
-0.0496565
-0.0443263
-0.0428641
-0.0446178
-0.224436
-0.22495
-0.216944
-0.208268
-0.194498
-0.179158
-0.16721
-0.160769
-0.152995
-0.144375
-0.140243
-0.142179
-0.14679
-0.149496
-0.147602
-0.140973
-0.131945
-0.124741
-0.120566
-0.120556
-0.208276
-0.213837
-0.212801
-0.213481
-0.210374
-0.204594
-0.198723
-0.202529
-0.205418
-0.202826
-0.20156
-0.207472
-0.21907
-0.230202
-0.234901
-0.230348
-0.218488
-0.205908
-0.197201
-0.196785
-0.185078
-0.196225
-0.204689
-0.218462
-0.231786
-0.244164
-0.24814
-0.26551
-0.285387
-0.295056
-0.29899
-0.306718
-0.32041
-0.334363
-0.340456
-0.333224
-0.313768
-0.29109
-0.274754
-0.274549
-0.145673
-0.162262
-0.184357
-0.216179
-0.251007
-0.293125
-0.314479
-0.347674
-0.388623
-0.417657
-0.43282
-0.444146
-0.4574
-0.469279
-0.47164
-0.457219
-0.425434
-0.386635
-0.356111
-0.352081
-0.0812255
-0.104269
-0.14806
-0.207365
-0.266894
-0.347426
-0.398251
-0.450707
-0.511964
-0.562651
-0.594105
-0.612721
-0.625291
-0.631793
-0.626872
-0.603243
-0.556813
-0.495717
-0.439119
-0.418739
0.0130392
-0.0208931
-0.0965099
-0.197949
-0.286028
-0.398658
-0.487375
-0.567444
-0.649617
-0.721405
-0.771773
-0.799518
-0.807509
-0.8015
-0.784439
-0.752031
-0.693626
-0.607828
-0.510245
-0.452878
0.138516
0.0836542
-0.0259065
-0.174959
-0.303484
-0.426011
-0.541705
-0.65821
-0.774493
-0.878073
-0.957604
-1.00003
-0.983878
-0.941634
-0.896806
-0.852441
-0.788531
-0.685056
-0.539787
-0.42585
0.302377
0.209308
0.0780041
-0.0842421
-0.265906
-0.397427
-0.527738
-0.689966
-0.875512
-1.05234
-1.18731
-1.24056
-1.18316
-1.05191
-0.918111
-0.826597
-0.753878
-0.652058
-0.48053
-0.310135
0.525294
0.382796
0.239306
0.116736
-0.0926398
-0.292263
-0.515528
-0.783016
-1.07188
-1.33389
-1.51653
-1.57726
-1.4969
-1.26419
-0.955106
-0.669091
-0.483354
-0.390316
-0.265466
-0.0889273
0.837533
0.690284
0.543625
0.366873
0.0752813
-0.269924
-0.665378
-1.06766
-1.41635
-1.67911
-1.84516
-1.90903
-1.86016
-1.66539
-1.2745
-0.695633
-0.132204
0.200123
0.247577
0.314979
1.45474
1.25566
0.95186
0.482083
-0.106464
-0.645538
-1.08655
-1.44605
-1.73106
-1.94227
-2.08151
-2.14863
-2.13414
-2.00975
-1.72027
-1.17955
-0.310986
0.60462
1.10286
1.19948
2.1002
1.62324
0.830401
-0.00145239
-0.58502
-1.00286
-1.34199
-1.62794
-1.86097
-2.03891
-2.16162
-2.22781
-2.22898
-2.14469
-1.94193
-1.57561
-0.944832
0.126358
1.46182
2.18977
)
;

boundaryField
{
    movingWall
    {
        type            zeroGradient;
    }
    fixedWalls
    {
        type            zeroGradient;
    }
    frontAndBack
    {
        type            empty;
    }
}


// ************************************************************************* //
