/*--------------------------------*- C++ -*----------------------------------*\
  =========                 |
  \\      /  F ield         | OpenFOAM: The Open Source CFD Toolbox
   \\    /   O peration     | Website:  https://openfoam.org
    \\  /    A nd           | Version:  8
     \\/     M anipulation  |
\*---------------------------------------------------------------------------*/
FoamFile
{
    version     2.0;
    format      ascii;
    class       surfaceScalarField;
    location    "1";
    object      phi;
}
// * * * * * * * * * * * * * * * * * * * * * * * * * * * * * * * * * * * * * //

dimensions      [0 3 -1 0 0 0 0];

internalField   nonuniform List<scalar> 
760
(
6.39967e-08
-6.41602e-08
-1.33895e-07
1.97892e-07
-6.014e-07
4.67509e-07
-1.24975e-06
6.4835e-07
-1.98618e-06
7.36424e-07
-2.72962e-06
7.43444e-07
-3.41118e-06
6.81563e-07
-3.97149e-06
5.60304e-07
-4.35885e-06
3.8736e-07
-4.5305e-06
1.71658e-07
-4.45723e-06
-7.32727e-08
-4.13032e-06
-3.26906e-07
-3.56893e-06
-5.61397e-07
-2.82521e-06
-7.43715e-07
-1.98462e-06
-8.40589e-07
-1.15889e-06
-8.25736e-07
-4.70592e-07
-6.88296e-07
-2.98208e-08
-4.4077e-07
1.022e-07
-1.32017e-07
1.02204e-07
-1.9627e-07
1.321e-07
-9.66106e-07
9.67736e-07
-2.25668e-06
1.75809e-06
-3.90592e-06
2.29759e-06
-5.7278e-06
2.5583e-06
-7.54359e-06
2.55923e-06
-9.19181e-06
2.32979e-06
-1.05303e-05
1.89882e-06
-1.14379e-05
1.29496e-06
-1.18196e-05
5.53375e-07
-1.16167e-05
-2.76217e-07
-1.08194e-05
-1.12422e-06
-9.47969e-06
-1.90109e-06
-7.71874e-06
-2.50467e-06
-5.72437e-06
-2.83496e-06
-3.73431e-06
-2.8158e-06
-2.00254e-06
-2.42006e-06
-7.50131e-07
-1.69319e-06
-1.03261e-07
-7.78897e-07
-1.05431e-09
-5.06123e-07
6.38229e-07
-1.89229e-06
2.35391e-06
-3.96706e-06
3.83285e-06
-6.49001e-06
4.82054e-06
-9.20837e-06
5.27666e-06
-1.188e-05
5.23088e-06
-1.42836e-05
4.73336e-06
-1.62228e-05
3.83805e-06
-1.7531e-05
2.60312e-06
-1.80792e-05
1.10157e-06
-1.77892e-05
-5.6617e-07
-1.66495e-05
-2.26397e-06
-1.47299e-05
-3.82063e-06
-1.21917e-05
-5.04293e-06
-9.28429e-06
-5.74234e-06
-6.32601e-06
-5.77408e-06
-3.6626e-06
-5.08347e-06
-1.60745e-06
-3.74834e-06
-3.71316e-07
-2.01504e-06
-3.72368e-07
-7.89407e-07
1.42764e-06
-2.76836e-06
4.33286e-06
-5.58735e-06
6.65184e-06
-8.91219e-06
8.14539e-06
-1.24275e-05
8.79201e-06
-1.58436e-05
8.64692e-06
-1.88989e-05
7.78871e-06
-2.13622e-05
6.30133e-06
-2.30361e-05
4.27703e-06
-2.37662e-05
1.83164e-06
-2.34548e-05
-8.77571e-07
-2.20789e-05
-3.63987e-06
-1.97085e-05
-6.19104e-06
-1.65205e-05
-8.23088e-06
-1.28019e-05
-9.46093e-06
-8.93349e-06
-9.64254e-06
-5.3488e-06
-8.66816e-06
-2.46913e-06
-6.628e-06
-6.2618e-07
-3.85798e-06
-9.98547e-07
-1.04178e-06
2.46942e-06
-3.56971e-06
6.86078e-06
-7.08277e-06
1.01649e-05
-1.115e-05
1.22126e-05
-1.53959e-05
1.3038e-05
-1.94923e-05
1.27433e-05
-2.31505e-05
1.14469e-05
-2.61167e-05
9.26746e-06
-2.81719e-05
6.33224e-06
-2.9139e-05
2.79873e-06
-2.88958e-05
-1.12078e-06
-2.73945e-05
-5.14117e-06
-2.46848e-05
-8.90067e-06
-2.09368e-05
-1.19789e-05
-1.64549e-05
-1.39428e-05
-1.1674e-05
-1.44234e-05
-7.12444e-06
-1.32177e-05
-3.36254e-06
-1.03899e-05
-8.77023e-07
-6.3435e-06
-1.87557e-06
-1.26674e-06
3.73616e-06
-4.29407e-06
9.88812e-06
-8.44362e-06
1.43145e-05
-1.31927e-05
1.69617e-05
-1.81111e-05
1.79564e-05
-2.28405e-05
1.74727e-05
-2.7075e-05
1.56815e-05
-3.05484e-05
1.27409e-05
-3.30271e-05
8.8109e-06
-3.43121e-05
4.08374e-06
-3.42502e-05
-1.18267e-06
-3.2754e-05
-6.63742e-06
-2.98307e-05
-1.18239e-05
-2.56175e-05
-1.61922e-05
-2.04136e-05
-1.91468e-05
-1.46968e-05
-2.01402e-05
-9.10373e-06
-1.88107e-05
-4.35844e-06
-1.51352e-05
-1.15177e-06
-9.55017e-06
-3.02734e-06
-1.46661e-06
5.20277e-06
-4.94071e-06
1.33622e-05
-9.66077e-06
1.90345e-05
-1.50208e-05
2.23217e-05
-2.05439e-05
2.34795e-05
-2.58508e-05
2.27796e-05
-3.06299e-05
2.04606e-05
-3.4613e-05
1.67239e-05
-3.75595e-05
1.17575e-05
-3.9252e-05
5.77626e-06
-3.95018e-05
-9.32931e-07
-3.81682e-05
-7.97101e-06
-3.51931e-05
-1.4799e-05
-3.06496e-05
-2.07357e-05
-2.47987e-05
-2.49976e-05
-1.8138e-05
-2.6801e-05
-1.14102e-05
-2.55385e-05
-5.54047e-06
-2.10049e-05
-1.48275e-06
-1.36079e-05
-4.51009e-06
-1.64205e-06
6.84482e-06
-5.50666e-06
1.72268e-05
-1.07197e-05
2.42475e-05
-1.66001e-05
2.82021e-05
-2.26335e-05
2.95129e-05
-2.8432e-05
2.85781e-05
-3.36914e-05
2.572e-05
-3.81551e-05
2.11876e-05
-4.15882e-05
1.51906e-05
-4.37628e-05
7.95087e-06
-4.44566e-05
-2.39194e-07
-4.34677e-05
-8.95993e-06
-4.06513e-05
-1.76153e-05
-3.59811e-05
-2.54059e-05
-2.96337e-05
-3.1345e-05
-2.20808e-05
-3.43538e-05
-1.41499e-05
-3.34694e-05
-6.99224e-06
-2.81626e-05
-1.90402e-06
-1.86961e-05
-6.4141e-06
-1.79384e-06
8.63866e-06
-5.98987e-06
2.14229e-05
-1.16043e-05
2.9862e-05
-1.78858e-05
3.44836e-05
-2.4293e-05
3.59201e-05
-3.04438e-05
3.47288e-05
-3.60586e-05
3.13348e-05
-4.09113e-05
2.60403e-05
-4.47908e-05
1.90701e-05
-4.74755e-05
1.06355e-05
-4.8721e-05
1.00636e-06
-4.8267e-05
-9.41394e-06
-4.58686e-05
-2.00138e-05
-4.13644e-05
-2.99101e-05
-3.47872e-05
-3.79222e-05
-2.65095e-05
-4.26315e-05
-1.7384e-05
-4.25949e-05
-8.78809e-06
-3.67585e-05
-2.45119e-06
-2.5033e-05
-8.86529e-06
-1.92726e-06
1.05659e-05
-6.39867e-06
2.58943e-05
-1.23093e-05
3.57726e-05
-1.88363e-05
4.10106e-05
-2.54226e-05
4.25064e-05
-3.17105e-05
4.10167e-05
-3.74675e-05
3.70919e-05
-4.2522e-05
3.10948e-05
-4.67123e-05
2.32604e-05
-4.98493e-05
1.37726e-05
-5.16918e-05
2.84886e-06
-5.19385e-05
-9.16718e-06
-5.0247e-05
-2.17053e-05
-4.62952e-05
-3.3862e-05
-3.99067e-05
-4.43107e-05
-3.12514e-05
-5.12868e-05
-2.10939e-05
-5.27523e-05
-1.09827e-05
-4.68698e-05
-3.16296e-06
-3.28528e-05
-1.20283e-05
-2.05929e-06
1.26252e-05
-6.76694e-06
3.06019e-05
-1.28588e-05
4.18644e-05
-1.94317e-05
4.75835e-05
-2.59278e-05
4.90026e-05
-3.20399e-05
4.71288e-05
-3.76113e-05
4.26633e-05
-4.25547e-05
3.60381e-05
-4.67896e-05
2.74954e-05
-5.01947e-05
1.71776e-05
-5.25699e-05
5.2241e-06
-5.36108e-05
-8.12626e-06
-5.29036e-05
-2.24125e-05
-4.99631e-05
-3.68025e-05
-4.43494e-05
-4.99244e-05
-3.59056e-05
-5.97306e-05
-2.51305e-05
-6.35274e-05
-1.35937e-05
-5.84066e-05
-4.08325e-06
-4.23632e-05
-1.61115e-05
-2.23026e-06
1.48555e-05
-7.17508e-06
3.55468e-05
-1.33281e-05
4.80174e-05
-1.96915e-05
5.3947e-05
-2.57343e-05
5.50453e-05
-3.12382e-05
5.26328e-05
-3.61604e-05
4.75854e-05
-4.05325e-05
4.04103e-05
-4.43904e-05
3.13532e-05
-4.77197e-05
2.0507e-05
-5.04096e-05
7.91396e-06
-5.22081e-05
-6.32775e-06
-5.26865e-05
-2.1934e-05
-5.12331e-05
-3.8256e-05
-4.71256e-05
-5.40319e-05
-3.97631e-05
-6.70931e-05
-2.91428e-05
-7.41478e-05
-1.65696e-05
-7.09798e-05
-5.26304e-06
-5.36697e-05
-2.13745e-05
-2.52245e-06
1.73779e-05
-7.77562e-06
4.07999e-05
-1.38589e-05
5.41006e-05
-1.96749e-05
5.97631e-05
-2.47763e-05
6.01467e-05
-2.90967e-05
5.69531e-05
-3.27566e-05
5.12453e-05
-3.59446e-05
4.35983e-05
-3.88448e-05
3.42534e-05
-4.15856e-05
2.32478e-05
-4.41926e-05
1.0521e-05
-4.65323e-05
-3.98811e-06
-4.82448e-05
-2.02215e-05
-4.86782e-05
-3.78226e-05
-4.68761e-05
-5.5834e-05
-4.17304e-05
-7.22387e-05
-3.24827e-05
-8.33955e-05
-1.97321e-05
-8.37303e-05
-6.75872e-06
-6.66431e-05
-2.81333e-05
-3.09008e-06
2.0468e-05
-8.81568e-06
4.65255e-05
-1.46424e-05
5.99273e-05
-1.94222e-05
6.45429e-05
-2.29129e-05
6.36373e-05
-2.53003e-05
5.93406e-05
-2.69323e-05
5.28773e-05
-2.81897e-05
4.48557e-05
-2.94255e-05
3.54891e-05
-3.09297e-05
2.47521e-05
-3.28956e-05
1.24869e-05
-3.53654e-05
-1.51832e-06
-3.8144e-05
-1.74429e-05
-4.06734e-05
-3.52932e-05
-4.19029e-05
-5.46046e-05
-4.02725e-05
-7.38691e-05
-3.40843e-05
-8.95837e-05
-2.26728e-05
-9.51418e-05
-8.61459e-06
-8.07013e-05
-3.67479e-05
-4.20038e-06
2.46684e-05
-1.06213e-05
5.29465e-05
-1.5796e-05
6.5102e-05
-1.87439e-05
6.74908e-05
-1.96715e-05
6.4565e-05
-1.91652e-05
5.88342e-05
-1.78693e-05
5.15814e-05
-1.6377e-05
4.33634e-05
-1.52037e-05
3.43159e-05
-1.47877e-05
2.4336e-05
-1.5485e-05
1.31842e-05
-1.75371e-05
5.33869e-07
-2.09897e-05
-1.39904e-05
-2.5533e-05
-3.07498e-05
-3.02564e-05
-4.98812e-05
-3.33853e-05
-7.07401e-05
-3.23059e-05
-9.06631e-05
-2.45567e-05
-0.000102891
-1.07885e-05
-9.44695e-05
-4.75364e-05
-6.24681e-06
3.09152e-05
-1.34055e-05
6.01052e-05
-1.69243e-05
6.86207e-05
-1.66379e-05
6.72045e-05
-1.36277e-05
6.15548e-05
-9.05137e-06
5.42579e-05
-3.8835e-06
4.64136e-05
1.10249e-06
3.83774e-05
5.28707e-06
3.01313e-05
8.14842e-06
2.14747e-05
9.2258e-06
1.21068e-05
8.1134e-06
1.64627e-06
4.50951e-06
-1.03865e-05
-1.64495e-06
-2.45954e-05
-9.86075e-06
-4.16654e-05
-1.85933e-05
-6.20076e-05
-2.47122e-05
-8.45443e-05
-2.37509e-05
-0.000103852
-1.29151e-05
-0.000105305
-6.04515e-05
-9.56169e-06
4.04769e-05
-1.64272e-05
6.69707e-05
-1.5822e-05
6.80155e-05
-9.88976e-06
6.12723e-05
-1.1257e-06
5.27907e-05
8.70464e-06
4.44275e-05
1.84211e-05
3.66971e-05
2.72268e-05
2.95718e-05
3.45446e-05
2.28134e-05
3.98997e-05
1.61196e-05
4.28421e-05
9.1644e-06
4.29034e-05
1.58495e-06
3.95957e-05
-7.07873e-06
3.24744e-05
-1.74741e-05
2.1383e-05
-3.05739e-05
7.05534e-06
-4.768e-05
-7.7688e-06
-6.97201e-05
-1.72139e-05
-9.44071e-05
-1.37639e-05
-0.000108755
-7.42154e-05
-1.34313e-05
5.39082e-05
-1.50818e-05
6.86211e-05
-5.09775e-06
5.80315e-05
9.81184e-06
4.63627e-05
2.58439e-05
3.67586e-05
4.12144e-05
2.90571e-05
5.50431e-05
2.28684e-05
6.68659e-05
1.77489e-05
7.63946e-05
1.32848e-05
8.33775e-05
9.13658e-06
8.75204e-05
5.02153e-06
8.8431e-05
6.74335e-07
8.55839e-05
-4.23161e-06
7.82728e-05
-1.0163e-05
6.5669e-05
-1.79701e-05
4.71924e-05
-2.92034e-05
2.37969e-05
-4.63246e-05
7.11626e-07
-7.13219e-05
-1.02178e-05
-9.78259e-05
-8.44332e-05
-9.4101e-06
6.33183e-05
8.82267e-06
5.03883e-05
3.51841e-05
3.16701e-05
6.00414e-05
2.15054e-05
8.14908e-05
1.53093e-05
9.94613e-05
1.10865e-05
0.000114212
8.11792e-06
0.000126026
5.93487e-06
0.000135108
4.20264e-06
0.000141543
2.70181e-06
0.000145279
1.28503e-06
0.000146111
-1.57081e-07
0.000143646
-1.76693e-06
0.000137184
-3.70062e-06
0.000125552
-6.33869e-06
0.000106902
-1.05531e-05
7.90829e-05
-1.85056e-05
4.22964e-05
-3.45354e-05
6.8986e-06
-6.24281e-05
-7.75346e-05
6.33183e-05
0.000113707
0.000145377
0.000166882
0.000182191
0.000193278
0.000201396
0.000207331
0.000211533
0.000214235
0.00021552
0.000215363
0.000213596
0.000209896
0.000203557
0.000193004
0.000174498
0.000139963
7.75346e-05
)
;

boundaryField
{
    movingWall
    {
        type            calculated;
        value           uniform 0;
    }
    fixedWalls
    {
        type            calculated;
        value           uniform 0;
    }
    frontAndBack
    {
        type            empty;
        value           nonuniform List<scalar> 0();
    }
}


// ************************************************************************* //
