/*--------------------------------*- C++ -*----------------------------------*\
  =========                 |
  \\      /  F ield         | OpenFOAM: The Open Source CFD Toolbox
   \\    /   O peration     | Website:  https://openfoam.org
    \\  /    A nd           | Version:  8
     \\/     M anipulation  |
\*---------------------------------------------------------------------------*/
FoamFile
{
    version     2.0;
    format      ascii;
    class       volVectorField;
    location    "1";
    object      U;
}
// * * * * * * * * * * * * * * * * * * * * * * * * * * * * * * * * * * * * * //

dimensions      [0 1 -1 0 0 0 0];

internalField   nonuniform List<vector> 
400
(
(0.00120396 -0.00120814 0)
(0.000401432 0.000673053 0)
(-0.00645199 0.00286784 0)
(-0.0179706 0.00434113 0)
(-0.0321784 0.00507001 0)
(-0.047303 0.00518625 0)
(-0.0618389 0.00480675 0)
(-0.0745041 0.00400807 0)
(-0.0841848 0.00283793 0)
(-0.0899231 0.0013459 0)
(-0.0909766 -0.000383532 0)
(-0.0869396 -0.00220743 0)
(-0.077895 -0.00391708 0)
(-0.064549 -0.0052537 0)
(-0.048295 -0.00594708 0)
(-0.0311533 -0.00577429 0)
(-0.0155483 -0.00462951 0)
(-0.00390962 -0.00259471 0)
(0.00189232 -8.66179e-05 0)
(0.00157744 0.00152468 0)
(-0.000623338 -0.000512401 0)
(-0.00896496 0.00884065 0)
(-0.0300601 0.0184054 0)
(-0.0603925 0.0249883 0)
(-0.0959923 0.0282421 0)
(-0.133185 0.0284729 0)
(-0.168558 0.0260771 0)
(-0.199058 0.0214009 0)
(-0.222033 0.0147529 0)
(-0.235285 0.00650052 0)
(-0.237225 -0.00281676 0)
(-0.227111 -0.012411 0)
(-0.205324 -0.021238 0)
(-0.173586 -0.028081 0)
(-0.135031 -0.0317325 0)
(-0.0940301 -0.0312584 0)
(-0.0556754 -0.0263084 0)
(-0.0249231 -0.0174148 0)
(-0.00570032 -0.00641567 0)
(0.000312647 0.00208335 0)
(-0.00307587 0.00649816 0)
(-0.0201081 0.0303348 0)
(-0.0555852 0.0520816 0)
(-0.103003 0.0669092 0)
(-0.156677 0.0740045 0)
(-0.211723 0.0737958 0)
(-0.263513 0.0670424 0)
(-0.307838 0.0545389 0)
(-0.341034 0.0371156 0)
(-0.360094 0.0158067 0)
(-0.362883 -0.00794591 0)
(-0.348431 -0.0321578 0)
(-0.317267 -0.0543121 0)
(-0.271688 -0.0715604 0)
(-0.215853 -0.0811325 0)
(-0.155583 -0.0809306 0)
(-0.0977195 -0.0702227 0)
(-0.0490499 -0.0502846 0)
(-0.0155808 -0.0250337 0)
(-0.00167179 -0.00260515 0)
(-0.00527271 0.0195526 0)
(-0.0305726 0.0642427 0)
(-0.079886 0.101437 0)
(-0.143269 0.125966 0)
(-0.213236 0.137033 0)
(-0.283928 0.135388 0)
(-0.349882 0.122266 0)
(-0.40614 0.0990204 0)
(-0.448378 0.0671384 0)
(-0.473026 0.0284964 0)
(-0.47749 -0.0143425 0)
(-0.460482 -0.0579328 0)
(-0.422401 -0.0979645 0)
(-0.365676 -0.129579 0)
(-0.294977 -0.14802 0)
(-0.217118 -0.149602 0)
(-0.140431 -0.132861 0)
(-0.0736267 -0.0996143 0)
(-0.0253419 -0.0557602 0)
(-0.00346116 -0.0125735 0)
(-0.00717393 0.0379731 0)
(-0.0400263 0.109545 0)
(-0.102258 0.165055 0)
(-0.180502 0.200224 0)
(-0.265465 0.214995 0)
(-0.350437 0.210827 0)
(-0.429358 0.189624 0)
(-0.496788 0.153389 0)
(-0.547979 0.104319 0)
(-0.578923 0.0451654 0)
(-0.586553 -0.0203534 0)
(-0.569076 -0.0872616 0)
(-0.526409 -0.149311 0)
(-0.460662 -0.199358 0)
(-0.376555 -0.23022 0)
(-0.281578 -0.236025 0)
(-0.185533 -0.213918 0)
(-0.0994235 -0.165666 0)
(-0.035236 -0.0987764 0)
(-0.00511046 -0.0275259 0)
(-0.00883726 0.0611664 0)
(-0.0485027 0.165338 0)
(-0.122559 0.241981 0)
(-0.214453 0.288705 0)
(-0.31319 0.306938 0)
(-0.411335 0.299322 0)
(-0.502427 0.268679 0)
(-0.580765 0.217755 0)
(-0.64135 0.149441 0)
(-0.679832 0.0672774 0)
(-0.69262 -0.023974 0)
(-0.677199 -0.117894 0)
(-0.632626 -0.206274 0)
(-0.560186 -0.27945 0)
(-0.464127 -0.327278 0)
(-0.352226 -0.340857 0)
(-0.235708 -0.314892 0)
(-0.128292 -0.250146 0)
(-0.0462104 -0.15521 0)
(-0.0068737 -0.0476294 0)
(-0.0103028 0.088609 0)
(-0.0560461 0.230616 0)
(-0.140704 0.331032 0)
(-0.244832 0.390192 0)
(-0.355911 0.411744 0)
(-0.465946 0.400015 0)
(-0.568282 0.359029 0)
(-0.657183 0.292358 0)
(-0.727603 0.203513 0)
(-0.774965 0.0966303 0)
(-0.79515 -0.0227463 0)
(-0.784751 -0.147012 0)
(-0.741593 -0.266133 0)
(-0.665583 -0.367787 0)
(-0.559816 -0.438304 0)
(-0.431741 -0.464672 0)
(-0.293689 -0.437672 0)
(-0.162392 -0.355564 0)
(-0.0594196 -0.227152 0)
(-0.00904888 -0.0736718 0)
(-0.0115902 0.119805 0)
(-0.0626656 0.304288 0)
(-0.156556 0.430779 0)
(-0.271185 0.503101 0)
(-0.392704 0.52785 0)
(-0.512764 0.511582 0)
(-0.624773 0.459824 0)
(-0.723239 0.377055 0)
(-0.80334 0.267288 0)
(-0.860488 0.134974 0)
(-0.890153 -0.0139705 0)
(-0.887983 -0.171201 0)
(-0.850296 -0.325218 0)
(-0.775049 -0.461122 0)
(-0.663343 -0.561255 0)
(-0.521302 -0.607276 0)
(-0.36157 -0.584067 0)
(-0.203796 -0.485086 0)
(-0.0760919 -0.317729 0)
(-0.0119643 -0.107117 0)
(-0.0127199 0.154265 0)
(-0.0683888 0.385189 0)
(-0.169997 0.539536 0)
(-0.292975 0.62537 0)
(-0.422313 0.653018 0)
(-0.549561 0.631866 0)
(-0.668513 0.569292 0)
(-0.774292 0.470778 0)
(-0.862671 0.3407 0)
(-0.929413 0.183478 0)
(-0.969876 0.00488021 0)
(-0.978932 -0.186662 0)
(-0.95131 -0.378839 0)
(-0.882555 -0.554608 0)
(-0.77082 -0.692196 0)
(-0.619506 -0.766806 0)
(-0.440046 -0.755009 0)
(-0.25415 -0.64209 0)
(-0.097488 -0.431011 0)
(-0.0160022 -0.150136 0)
(-0.0137596 0.191541 0)
(-0.0734063 0.472131 0)
(-0.181154 0.655331 0)
(-0.309838 0.754284 0)
(-0.443417 0.784005 0)
(-0.573653 0.757425 0)
(-0.695154 0.684181 0)
(-0.804122 0.570887 0)
(-0.897427 0.422159 0)
(-0.971708 0.242028 0)
(-1.02274 0.0355167 0)
(-1.04507 -0.189679 0)
(-1.03209 -0.421428 0)
(-0.976768 -0.641495 0)
(-0.873434 -0.824485 0)
(-0.721045 -0.938501 0)
(-0.527427 -0.949262 0)
(-0.314237 -0.829242 0)
(-0.124888 -0.571697 0)
(-0.0216504 -0.205648 0)
(-0.0149047 0.231378 0)
(-0.0783097 0.564093 0)
(-0.19075 0.77594 0)
(-0.321971 0.886329 0)
(-0.454999 0.916252 0)
(-0.58227 0.883082 0)
(-0.699772 0.799202 0)
(-0.805377 0.672519 0)
(-0.897661 0.507812 0)
(-0.974803 0.308403 0)
(-1.03373 0.0779812 0)
(-1.06946 -0.177409 0)
(-1.07476 -0.447096 0)
(-1.04031 -0.71321 0)
(-0.956202 -0.94816 0)
(-0.8152 -1.11336 0)
(-0.618322 -1.16165 0)
(-0.383282 -1.04701 0)
(-0.159542 -0.744522 0)
(-0.0295829 -0.277415 0)
(-0.0166147 0.274053 0)
(-0.0844502 0.66059 0)
(-0.200556 0.899005 0)
(-0.330531 1.01703 0)
(-0.456663 1.04355 0)
(-0.572827 1.0015 0)
(-0.6772 0.906548 0)
(-0.770042 0.768055 0)
(-0.852314 0.590909 0)
(-0.924456 0.377496 0)
(-0.985413 0.1297 0)
(-1.03173 -0.148948 0)
(-1.05669 -0.450664 0)
(-1.0498 -0.760043 0)
(-0.997215 -1.04986 0)
(-0.884375 -1.27695 0)
(-0.701935 -1.38089 0)
(-0.45782 -1.29144 0)
(-0.202491 -0.953176 0)
(-0.0407714 -0.370195 0)
(-0.0198531 0.321019 0)
(-0.0944552 0.762248 0)
(-0.213842 1.02209 0)
(-0.337782 1.14064 0)
(-0.448478 1.15757 0)
(-0.542634 1.10276 0)
(-0.621789 0.995544 0)
(-0.689448 0.846804 0)
(-0.749615 0.661455 0)
(-0.805632 0.440813 0)
(-0.859253 0.184692 0)
(-0.909655 -0.106487 0)
(-0.952194 -0.429107 0)
(-0.976969 -0.772576 0)
(-0.967814 -1.11367 0)
(-0.903053 -1.40895 0)
(-0.76013 -1.58744 0)
(-0.529914 -1.55101 0)
(-0.254058 -1.19835 0)
(-0.0566054 -0.489929 0)
(-0.0265059 0.37605 0)
(-0.112912 0.871446 0)
(-0.235492 1.14236 0)
(-0.346316 1.24932 0)
(-0.429485 1.24711 0)
(-0.487061 1.1738 0)
(-0.525619 1.05244 0)
(-0.552844 0.895081 0)
(-0.576283 0.706412 0)
(-0.602512 0.486581 0)
(-0.636535 0.233342 0)
(-0.680983 -0.0561341 0)
(-0.734772 -0.383119 0)
(-0.790952 -0.743843 0)
(-0.834006 -1.1232 0)
(-0.837598 -1.48402 0)
(-0.765444 -1.75197 0)
(-0.584476 -1.80276 0)
(-0.3125 -1.47424 0)
(-0.0788685 -0.643673 0)
(-0.040008 0.447118 0)
(-0.146917 0.992553 0)
(-0.270667 1.25507 0)
(-0.355559 1.33128 0)
(-0.392829 1.29661 0)
(-0.394181 1.19777 0)
(-0.373333 1.06048 0)
(-0.342907 0.896885 0)
(-0.31403 0.710769 0)
(-0.296238 0.50093 0)
(-0.297522 0.263296 0)
(-0.32406 -0.00775303 0)
(-0.379195 -0.318144 0)
(-0.461151 -0.671783 0)
(-0.559049 -1.06512 0)
(-0.64712 -1.475 0)
(-0.679182 -1.83589 0)
(-0.595139 -2.00855 0)
(-0.370598 -1.76287 0)
(-0.108936 -0.838621 0)
(-0.0657194 0.549528 0)
(-0.204762 1.13025 0)
(-0.318378 1.34916 0)
(-0.351078 1.36676 0)
(-0.313297 1.28385 0)
(-0.232448 1.1534 0)
(-0.131005 1.00072 0)
(-0.0262603 0.835753 0)
(0.0681059 0.660061 0)
(0.140895 0.470719 0)
(0.182417 0.262203 0)
(0.183977 0.0271044 0)
(0.138176 -0.243744 0)
(0.0405255 -0.560833 0)
(-0.106534 -0.933208 0)
(-0.285262 -1.35825 0)
(-0.449478 -1.795 0)
(-0.517829 -2.11305 0)
(-0.407836 -2.02716 0)
(-0.144244 -1.08095 0)
(-0.108552 0.712189 0)
(-0.286091 1.28086 0)
(-0.348985 1.39369 0)
(-0.276131 1.31816 0)
(-0.119763 1.17524 0)
(0.0729655 1.0144 0)
(0.27292 0.854054 0)
(0.461303 0.698255 0)
(0.625001 0.544653 0)
(0.75392 0.388188 0)
(0.839107 0.222417 0)
(0.871531 0.0395446 0)
(0.841606 -0.170439 0)
(0.739493 -0.421226 0)
(0.557483 -0.73133 0)
(0.297911 -1.12009 0)
(-0.00895637 -1.58576 0)
(-0.281524 -2.04338 0)
(-0.376085 -2.20081 0)
(-0.167804 -1.37393 0)
(-0.15544 0.978517 0)
(-0.34012 1.40054 0)
(-0.237135 1.30653 0)
(0.0334607 1.11485 0)
(0.355071 0.92385 0)
(0.674879 0.754396 0)
(0.969905 0.608736 0)
(1.22825 0.481969 0)
(1.4431 0.367165 0)
(1.60953 0.257552 0)
(1.72239 0.146773 0)
(1.77505 0.0282669 0)
(1.75857 -0.106049 0)
(1.66074 -0.268177 0)
(1.46567 -0.478217 0)
(1.15711 -0.768926 0)
(0.731388 -1.18076 0)
(0.228274 -1.71352 0)
(-0.173245 -2.15972 0)
(-0.11891 -1.6752 0)
(-0.0475543 1.26959 0)
(-0.0720458 1.31698 0)
(0.411504 0.969052 0)
(0.958332 0.709627 0)
(1.42971 0.529412 0)
(1.82339 0.398481 0)
(2.14954 0.301191 0)
(2.41451 0.226177 0)
(2.62305 0.16462 0)
(2.77821 0.110139 0)
(2.88046 0.0580234 0)
(2.92734 0.0042931 0)
(2.91314 -0.0552919 0)
(2.82737 -0.127362 0)
(2.65221 -0.224401 0)
(2.35875 -0.373314 0)
(1.9021 -0.630436 0)
(1.22476 -1.07931 0)
(0.452936 -1.68873 0)
(0.217551 -1.702 0)
(1.43844 0.707288 0)
(1.83592 0.626656 0)
(2.56365 0.398331 0)
(3.13781 0.251703 0)
(3.51226 0.164282 0)
(3.7695 0.109449 0)
(3.95709 0.0740165 0)
(4.09549 0.0502486 0)
(4.19566 0.0331296 0)
(4.26404 0.0195285 0)
(4.30371 0.00749611 0)
(4.3152 -0.0043059 0)
(4.29664 -0.0169558 0)
(4.24327 -0.0321769 0)
(4.14528 -0.0531854 0)
(3.98152 -0.0879913 0)
(3.70276 -0.15837 0)
(3.17464 -0.316185 0)
(2.29975 -0.622811 0)
(1.66843 -0.779943 0)
)
;

boundaryField
{
    movingWall
    {
        type            fixedValue;
        value           uniform (5.07457 0 0);
    }
    fixedWalls
    {
        type            noSlip;
    }
    frontAndBack
    {
        type            empty;
    }
}


// ************************************************************************* //
