/*--------------------------------*- C++ -*----------------------------------*\
  =========                 |
  \\      /  F ield         | OpenFOAM: The Open Source CFD Toolbox
   \\    /   O peration     | Website:  https://openfoam.org
    \\  /    A nd           | Version:  8
     \\/     M anipulation  |
\*---------------------------------------------------------------------------*/
FoamFile
{
    version     2.0;
    format      ascii;
    class       volScalarField;
    location    "1";
    object      p;
}
// * * * * * * * * * * * * * * * * * * * * * * * * * * * * * * * * * * * * * //

dimensions      [0 2 -2 0 0 0 0];

internalField   nonuniform List<scalar> 
400
(
-0.0992067
-0.198221
-0.251383
-0.27677
-0.280409
-0.268195
-0.243254
-0.206173
-0.159598
-0.10652
-0.0491721
0.0102602
0.0690106
0.123936
0.172164
0.211645
0.241385
0.26137
0.272382
0.276044
-0.198609
-0.239094
-0.268632
-0.283788
-0.282777
-0.267923
-0.24158
-0.20444
-0.158689
-0.106686
-0.0502472
0.00860272
0.0670831
0.121919
0.170042
0.209232
0.238418
0.257529
0.266927
0.266575
-0.250322
-0.268536
-0.280346
-0.284752
-0.277424
-0.260075
-0.234004
-0.198905
-0.156323
-0.108038
-0.0551995
0.000733079
0.057174
0.110619
0.157522
0.195232
0.222569
0.239675
0.247115
0.245362
-0.273338
-0.28084
-0.280846
-0.276653
-0.264028
-0.244898
-0.220149
-0.18865
-0.151318
-0.109317
-0.062884
-0.0125392
0.039629
0.0899836
0.134424
0.16974
0.194497
0.208962
0.214048
0.210793
-0.278171
-0.279203
-0.271755
-0.261162
-0.244201
-0.223651
-0.200563
-0.173241
-0.142115
-0.10803
-0.070432
-0.028666
0.0160989
0.0604789
0.100094
0.131346
0.152569
0.16394
0.166672
0.162199
-0.270486
-0.26778
-0.25587
-0.241188
-0.221248
-0.199869
-0.178768
-0.155877
-0.131124
-0.105555
-0.0784171
-0.0479333
-0.0138649
0.0213494
0.053627
0.0792754
0.0963517
0.104646
0.105613
0.100866
-0.255914
-0.251977
-0.238406
-0.222358
-0.201387
-0.180095
-0.161302
-0.142889
-0.123793
-0.105713
-0.0888367
-0.0709296
-0.0500768
-0.0268944
-0.00423019
0.0146905
0.0276532
0.033643
0.0340572
0.030335
-0.239783
-0.236941
-0.224647
-0.210433
-0.191123
-0.171397
-0.155446
-0.142057
-0.128005
-0.115327
-0.106484
-0.100193
-0.0931779
-0.0834906
-0.0716383
-0.0595901
-0.0497326
-0.0444017
-0.0429387
-0.044692
-0.224524
-0.225038
-0.217031
-0.208354
-0.194582
-0.179241
-0.167291
-0.160849
-0.153074
-0.144453
-0.140321
-0.142258
-0.146869
-0.149576
-0.147681
-0.141052
-0.132023
-0.124818
-0.120642
-0.120631
-0.208366
-0.213927
-0.212889
-0.213568
-0.210459
-0.204678
-0.198805
-0.202611
-0.205499
-0.202906
-0.201641
-0.207553
-0.219152
-0.230284
-0.234982
-0.230428
-0.218568
-0.205986
-0.197278
-0.196861
-0.185169
-0.196315
-0.204778
-0.218549
-0.231872
-0.244248
-0.248223
-0.265593
-0.28547
-0.295139
-0.299073
-0.306802
-0.320494
-0.334447
-0.340539
-0.333305
-0.313848
-0.291168
-0.274832
-0.274626
-0.145765
-0.162354
-0.184447
-0.216267
-0.251092
-0.29321
-0.314562
-0.347757
-0.388706
-0.417743
-0.432906
-0.444233
-0.457487
-0.469365
-0.471724
-0.457301
-0.425513
-0.386713
-0.356188
-0.352159
-0.0813189
-0.104362
-0.148151
-0.207454
-0.26698
-0.347511
-0.398335
-0.45079
-0.512048
-0.562736
-0.594193
-0.61281
-0.62538
-0.631881
-0.626957
-0.603325
-0.556893
-0.495795
-0.439197
-0.418817
0.012944
-0.0209871
-0.096602
-0.198039
-0.286115
-0.398743
-0.487459
-0.567526
-0.6497
-0.72149
-0.77186
-0.799609
-0.807601
-0.801592
-0.784527
-0.752115
-0.693708
-0.607907
-0.510324
-0.452957
0.138419
0.0835575
-0.0260007
-0.175051
-0.303572
-0.426096
-0.541788
-0.658291
-0.774573
-0.878152
-0.957685
-1.00011
-0.983974
-0.941731
-0.8969
-0.852532
-0.788617
-0.685138
-0.539867
-0.42593
0.302276
0.209208
0.0779083
-0.0843343
-0.265995
-0.397512
-0.52782
-0.690046
-0.875591
-1.05242
-1.18739
-1.24065
-1.18325
-1.052
-0.918208
-0.826694
-0.753972
-0.652146
-0.480612
-0.310217
0.52519
0.382693
0.239208
0.116645
-0.0927292
-0.292352
-0.515614
-0.783101
-1.07196
-1.33397
-1.51661
-1.57733
-1.49698
-1.26427
-0.955195
-0.669189
-0.483455
-0.390411
-0.265554
-0.0890144
0.83743
0.690182
0.543524
0.366774
0.0751851
-0.270019
-0.665471
-1.06775
-1.41644
-1.67919
-1.84524
-1.9091
-1.86023
-1.66546
-1.27458
-0.695716
-0.1323
0.200019
0.247475
0.314879
1.45463
1.25555
0.951755
0.481977
-0.106568
-0.645636
-1.08664
-1.44614
-1.73114
-1.94234
-2.08158
-2.14869
-2.1342
-2.00982
-1.72034
-1.17962
-0.311067
0.604519
1.10274
1.19937
2.10008
1.62313
0.83029
-0.00155513
-0.585116
-1.00295
-1.34207
-1.62802
-1.86104
-2.03898
-2.16169
-2.22788
-2.22904
-2.14476
-1.942
-1.57569
-0.944915
0.126264
1.46171
2.18965
)
;

boundaryField
{
    movingWall
    {
        type            zeroGradient;
    }
    fixedWalls
    {
        type            zeroGradient;
    }
    frontAndBack
    {
        type            empty;
    }
}


// ************************************************************************* //
