/*--------------------------------*- C++ -*----------------------------------*\
  =========                 |
  \\      /  F ield         | OpenFOAM: The Open Source CFD Toolbox
   \\    /   O peration     | Website:  https://openfoam.org
    \\  /    A nd           | Version:  8
     \\/     M anipulation  |
\*---------------------------------------------------------------------------*/
FoamFile
{
    version     2.0;
    format      ascii;
    class       surfaceScalarField;
    location    "1";
    object      phi;
}
// * * * * * * * * * * * * * * * * * * * * * * * * * * * * * * * * * * * * * //

dimensions      [0 3 -1 0 0 0 0];

internalField   nonuniform List<scalar> 
760
(
6.40956e-08
-6.4067e-08
-1.33858e-07
1.97955e-07
-6.01412e-07
4.67557e-07
-1.24981e-06
6.48396e-07
-1.98628e-06
7.3647e-07
-2.72977e-06
7.43488e-07
-3.41137e-06
6.81604e-07
-3.97171e-06
5.60338e-07
-4.3591e-06
3.87385e-07
-4.53077e-06
1.71671e-07
-4.45749e-06
-7.32743e-08
-4.13057e-06
-3.26924e-07
-3.56914e-06
-5.61431e-07
-2.82537e-06
-7.43761e-07
-1.98473e-06
-8.40642e-07
-1.15895e-06
-8.25787e-07
-4.70612e-07
-6.88337e-07
-2.98171e-08
-4.40795e-07
1.02208e-07
-1.32023e-07
1.02211e-07
-1.96232e-07
1.32157e-07
-9.66114e-07
9.67844e-07
-2.25677e-06
1.75822e-06
-3.90612e-06
2.29774e-06
-5.72811e-06
2.55846e-06
-7.544e-06
2.55938e-06
-9.19232e-06
2.32992e-06
-1.05309e-05
1.89894e-06
-1.14386e-05
1.29505e-06
-1.18203e-05
5.53416e-07
-1.16174e-05
-2.76226e-07
-1.082e-05
-1.12428e-06
-9.48024e-06
-1.90121e-06
-7.71918e-06
-2.50482e-06
-5.72469e-06
-2.83513e-06
-3.73451e-06
-2.81597e-06
-2.00264e-06
-2.42021e-06
-7.50163e-07
-1.69328e-06
-1.03262e-07
-7.78932e-07
-1.04812e-09
-5.06133e-07
6.38295e-07
-1.89237e-06
2.35408e-06
-3.96726e-06
3.8331e-06
-6.49035e-06
4.82083e-06
-9.20887e-06
5.27697e-06
-1.18807e-05
5.23118e-06
-1.42844e-05
4.73364e-06
-1.62237e-05
3.83828e-06
-1.7532e-05
2.60329e-06
-1.80802e-05
1.10165e-06
-1.77902e-05
-5.66191e-07
-1.66504e-05
-2.2641e-06
-1.47308e-05
-3.82086e-06
-1.21924e-05
-5.04324e-06
-9.28481e-06
-5.74269e-06
-6.32635e-06
-5.77443e-06
-3.66279e-06
-5.08377e-06
-1.60753e-06
-3.74854e-06
-3.7133e-07
-2.01513e-06
-3.72377e-07
-7.89446e-07
1.42775e-06
-2.76851e-06
4.33314e-06
-5.58765e-06
6.65225e-06
-8.91268e-06
8.14587e-06
-1.24282e-05
8.79252e-06
-1.58445e-05
8.64742e-06
-1.89e-05
7.78916e-06
-2.13634e-05
6.30171e-06
-2.30374e-05
4.2773e-06
-2.37675e-05
1.83177e-06
-2.34561e-05
-8.77603e-07
-2.20802e-05
-3.64007e-06
-1.97096e-05
-6.1914e-06
-1.65215e-05
-8.23138e-06
-1.28027e-05
-9.4615e-06
-8.93398e-06
-9.64312e-06
-5.34908e-06
-8.66867e-06
-2.46925e-06
-6.62837e-06
-6.26208e-07
-3.85818e-06
-9.98584e-07
-1.04184e-06
2.46959e-06
-3.56991e-06
6.86121e-06
-7.08316e-06
1.01655e-05
-1.11506e-05
1.22133e-05
-1.53968e-05
1.30387e-05
-1.94934e-05
1.27441e-05
-2.31518e-05
1.14476e-05
-2.61181e-05
9.26801e-06
-2.81735e-05
6.33263e-06
-2.91406e-05
2.79893e-06
-2.88974e-05
-1.12081e-06
-2.7396e-05
-5.14144e-06
-2.46862e-05
-8.90118e-06
-2.0938e-05
-1.19796e-05
-1.64558e-05
-1.39436e-05
-1.16747e-05
-1.44243e-05
-7.12483e-06
-1.32185e-05
-3.36271e-06
-1.03905e-05
-8.77064e-07
-6.34382e-06
-1.87565e-06
-1.26682e-06
3.7364e-06
-4.29431e-06
9.88871e-06
-8.44409e-06
1.43153e-05
-1.31934e-05
1.69626e-05
-1.81121e-05
1.79574e-05
-2.28417e-05
1.74736e-05
-2.70765e-05
1.56824e-05
-3.05501e-05
1.27416e-05
-3.30289e-05
8.81145e-06
-3.4314e-05
4.08404e-06
-3.42522e-05
-1.18268e-06
-3.27559e-05
-6.63776e-06
-2.98325e-05
-1.18246e-05
-2.5619e-05
-1.61931e-05
-2.04148e-05
-1.91479e-05
-1.46976e-05
-2.01415e-05
-9.10425e-06
-1.88119e-05
-4.35868e-06
-1.5136e-05
-1.15182e-06
-9.55068e-06
-3.02747e-06
-1.46669e-06
5.20309e-06
-4.94098e-06
1.3363e-05
-9.66129e-06
1.90356e-05
-1.50216e-05
2.23229e-05
-2.05449e-05
2.34807e-05
-2.58521e-05
2.27808e-05
-3.06316e-05
2.04618e-05
-3.46148e-05
1.67249e-05
-3.75616e-05
1.17582e-05
-3.92542e-05
5.77669e-06
-3.95041e-05
-9.32877e-07
-3.81704e-05
-7.97138e-06
-3.51952e-05
-1.47998e-05
-3.06514e-05
-2.07369e-05
-2.48002e-05
-2.49991e-05
-1.81391e-05
-2.68026e-05
-1.14109e-05
-2.554e-05
-5.5408e-06
-2.10061e-05
-1.48283e-06
-1.36086e-05
-4.5103e-06
-1.64213e-06
6.84523e-06
-5.50694e-06
1.72278e-05
-1.07202e-05
2.42489e-05
-1.66009e-05
2.82036e-05
-2.26346e-05
2.95145e-05
-2.84334e-05
2.85796e-05
-3.36931e-05
2.57215e-05
-3.81571e-05
2.11889e-05
-4.15905e-05
1.51916e-05
-4.37653e-05
7.95149e-06
-4.44591e-05
-2.39024e-07
-4.34702e-05
-8.96027e-06
-4.06538e-05
-1.76162e-05
-3.59834e-05
-2.54073e-05
-2.96356e-05
-3.13469e-05
-2.20823e-05
-3.43559e-05
-1.41508e-05
-3.34715e-05
-6.99268e-06
-2.81643e-05
-1.90413e-06
-1.86972e-05
-6.41443e-06
-1.79393e-06
8.63916e-06
-5.99015e-06
2.1424e-05
-1.16048e-05
2.98635e-05
-1.78866e-05
3.44854e-05
-2.42942e-05
3.5922e-05
-3.04453e-05
3.47307e-05
-3.60604e-05
3.13366e-05
-4.09134e-05
2.60419e-05
-4.47932e-05
1.90714e-05
-4.74781e-05
1.06364e-05
-4.87239e-05
1.00671e-06
-4.82699e-05
-9.4142e-06
-4.58714e-05
-2.00147e-05
-4.13671e-05
-2.99117e-05
-3.47895e-05
-3.79245e-05
-2.65113e-05
-4.26341e-05
-1.73852e-05
-4.25976e-05
-8.78868e-06
-3.67608e-05
-2.45134e-06
-2.50345e-05
-8.86577e-06
-1.92734e-06
1.05665e-05
-6.39895e-06
2.58956e-05
-1.23098e-05
3.57744e-05
-1.88371e-05
4.10128e-05
-2.54237e-05
4.25086e-05
-3.17119e-05
4.10189e-05
-3.74693e-05
3.7094e-05
-4.25241e-05
3.10967e-05
-4.67147e-05
2.3262e-05
-4.9852e-05
1.37737e-05
-5.16947e-05
2.84945e-06
-5.19417e-05
-9.16727e-06
-5.02502e-05
-2.17062e-05
-4.62982e-05
-3.38637e-05
-3.99094e-05
-4.43133e-05
-3.12536e-05
-5.12899e-05
-2.10954e-05
-5.27557e-05
-1.09835e-05
-4.68728e-05
-3.16318e-06
-3.28548e-05
-1.2029e-05
-2.05937e-06
1.26259e-05
-6.7672e-06
3.06035e-05
-1.28593e-05
4.18665e-05
-1.94324e-05
4.75859e-05
-2.59289e-05
4.90051e-05
-3.20413e-05
4.71313e-05
-3.7613e-05
4.26657e-05
-4.25567e-05
3.60404e-05
-4.67919e-05
2.74973e-05
-5.01974e-05
1.71791e-05
-5.25729e-05
5.22499e-06
-5.3614e-05
-8.12612e-06
-5.2907e-05
-2.24132e-05
-4.99664e-05
-3.68042e-05
-4.43525e-05
-4.99272e-05
-3.59082e-05
-5.97342e-05
-2.51323e-05
-6.35315e-05
-1.35947e-05
-5.84104e-05
-4.08356e-06
-4.2366e-05
-1.61125e-05
-2.23033e-06
1.48562e-05
-7.17533e-06
3.55485e-05
-1.33285e-05
4.80197e-05
-1.96923e-05
5.39496e-05
-2.57352e-05
5.50481e-05
-3.12395e-05
5.26356e-05
-3.61619e-05
4.75881e-05
-4.05343e-05
4.04128e-05
-4.43925e-05
3.13554e-05
-4.77222e-05
2.05088e-05
-5.04124e-05
7.91517e-06
-5.22112e-05
-6.32732e-06
-5.26898e-05
-2.19346e-05
-5.12365e-05
-3.82576e-05
-4.71289e-05
-5.40348e-05
-3.9766e-05
-6.70971e-05
-2.9145e-05
-7.41526e-05
-1.65709e-05
-7.09846e-05
-5.26345e-06
-5.36734e-05
-2.1376e-05
-2.52252e-06
1.73787e-05
-7.77586e-06
4.08018e-05
-1.38593e-05
5.41031e-05
-1.96756e-05
5.97659e-05
-2.47771e-05
6.01496e-05
-2.90977e-05
5.69561e-05
-3.27578e-05
5.12482e-05
-3.59461e-05
4.3601e-05
-3.88465e-05
3.42558e-05
-4.15876e-05
2.32499e-05
-4.41949e-05
1.05225e-05
-4.65349e-05
-3.98738e-06
-4.82477e-05
-2.02218e-05
-4.86813e-05
-3.7824e-05
-4.68792e-05
-5.58368e-05
-4.17334e-05
-7.22429e-05
-3.24852e-05
-8.34008e-05
-1.97337e-05
-8.3736e-05
-6.75928e-06
-6.66478e-05
-2.81352e-05
-3.09017e-06
2.04689e-05
-8.81594e-06
4.65276e-05
-1.46429e-05
5.993e-05
-1.94228e-05
6.45459e-05
-2.29136e-05
6.36405e-05
-2.53012e-05
5.93437e-05
-2.69333e-05
5.28803e-05
-2.81908e-05
4.48586e-05
-2.94267e-05
3.54917e-05
-3.09311e-05
2.47543e-05
-3.28972e-05
1.24886e-05
-3.53672e-05
-1.51735e-06
-3.81461e-05
-1.74429e-05
-4.06758e-05
-3.52943e-05
-4.19056e-05
-5.46071e-05
-4.02753e-05
-7.38731e-05
-3.40868e-05
-8.95893e-05
-2.26745e-05
-9.51483e-05
-8.6153e-06
-8.07071e-05
-3.67505e-05
-4.20051e-06
2.46694e-05
-1.06217e-05
5.29487e-05
-1.57965e-05
6.51048e-05
-1.87445e-05
6.74939e-05
-1.96722e-05
6.45682e-05
-1.91658e-05
5.88374e-05
-1.787e-05
5.15844e-05
-1.63776e-05
4.33662e-05
-1.52043e-05
3.43184e-05
-1.47883e-05
2.43382e-05
-1.54856e-05
1.31859e-05
-1.75379e-05
5.34959e-07
-2.09906e-05
-1.39901e-05
-2.55343e-05
-3.07506e-05
-3.02581e-05
-4.98833e-05
-3.33874e-05
-7.07439e-05
-3.23081e-05
-9.06686e-05
-2.45586e-05
-0.000102898
-1.07894e-05
-9.44763e-05
-4.754e-05
-6.24705e-06
3.09165e-05
-1.3406e-05
6.01077e-05
-1.69249e-05
6.86238e-05
-1.66386e-05
6.72076e-05
-1.36283e-05
6.15578e-05
-9.0518e-06
5.42608e-05
-3.88371e-06
4.64164e-05
1.10252e-06
3.838e-05
5.28735e-06
3.01336e-05
8.14891e-06
2.14767e-05
9.22645e-06
1.21083e-05
8.11411e-06
1.6473e-06
4.51012e-06
-1.03861e-05
-1.64462e-06
-2.45959e-05
-9.8609e-06
-4.1667e-05
-1.85941e-05
-6.20107e-05
-2.47136e-05
-8.45491e-05
-2.37525e-05
-0.000103859
-1.2916e-05
-0.000105313
-6.0456e-05
-9.56213e-06
4.04786e-05
-1.6428e-05
6.69736e-05
-1.58229e-05
6.80186e-05
-9.89048e-06
6.12752e-05
-1.12609e-06
5.27934e-05
8.70467e-06
4.44301e-05
1.84217e-05
3.66994e-05
2.72278e-05
2.95739e-05
3.45461e-05
2.28153e-05
3.99017e-05
1.61211e-05
4.28444e-05
9.16561e-06
4.2906e-05
1.58575e-06
3.95983e-05
-7.07844e-06
3.24768e-05
-1.74744e-05
2.13849e-05
-3.05751e-05
7.05646e-06
-4.76823e-05
-7.76873e-06
-6.97239e-05
-1.72148e-05
-9.44129e-05
-1.37648e-05
-0.000108763
-7.42208e-05
-1.34321e-05
5.39107e-05
-1.50828e-05
6.86243e-05
-5.09854e-06
5.80343e-05
9.81164e-06
4.6365e-05
2.58444e-05
3.67607e-05
4.12156e-05
2.90589e-05
5.50451e-05
2.28699e-05
6.68687e-05
1.77502e-05
7.6398e-05
1.3286e-05
8.33816e-05
9.13751e-06
8.7525e-05
5.02223e-06
8.8436e-05
6.74769e-07
8.5589e-05
-4.23149e-06
7.82779e-05
-1.01633e-05
6.56736e-05
-1.79708e-05
4.71961e-05
-2.92047e-05
2.37992e-05
-4.6327e-05
7.12285e-07
-7.1326e-05
-1.02182e-05
-9.78321e-05
-8.44391e-05
-9.41096e-06
6.33217e-05
8.82247e-06
5.03909e-05
3.51851e-05
3.16717e-05
6.00436e-05
2.15066e-05
8.1494e-05
1.53102e-05
9.94656e-05
1.10873e-05
0.000114217
8.11852e-06
0.000126032
5.93536e-06
0.000135115
4.20303e-06
0.00014155
2.70211e-06
0.000145287
1.28524e-06
0.000146119
-1.56972e-07
0.000143654
-1.76694e-06
0.000137192
-3.70077e-06
0.00012556
-6.33899e-06
0.000106909
-1.05536e-05
7.90885e-05
-1.85065e-05
4.22998e-05
-3.45373e-05
6.89954e-06
-6.24318e-05
-7.75395e-05
6.33217e-05
0.000113713
0.000145384
0.000166891
0.000182201
0.000193288
0.000201407
0.000207342
0.000211545
0.000214247
0.000215533
0.000215376
0.000213609
0.000209908
0.000203569
0.000193015
0.000174509
0.000139971
7.75395e-05
)
;

boundaryField
{
    movingWall
    {
        type            calculated;
        value           uniform 0;
    }
    fixedWalls
    {
        type            calculated;
        value           uniform 0;
    }
    frontAndBack
    {
        type            empty;
        value           nonuniform List<scalar> 0();
    }
}


// ************************************************************************* //
