/*--------------------------------*- C++ -*----------------------------------*\
  =========                 |
  \\      /  F ield         | OpenFOAM: The Open Source CFD Toolbox
   \\    /   O peration     | Website:  https://openfoam.org
    \\  /    A nd           | Version:  8
     \\/     M anipulation  |
\*---------------------------------------------------------------------------*/
FoamFile
{
    version     2.0;
    format      ascii;
    class       volVectorField;
    location    "1";
    object      U;
}
// * * * * * * * * * * * * * * * * * * * * * * * * * * * * * * * * * * * * * //

dimensions      [0 1 -1 0 0 0 0];

internalField   nonuniform List<vector> 
400
(
(0.00120504 -0.00120687 0)
(0.000403159 0.000673733 0)
(-0.00645068 0.00286795 0)
(-0.0179689 0.00434096 0)
(-0.0321759 0.00506972 0)
(-0.0472994 0.00518592 0)
(-0.0618344 0.00480641 0)
(-0.0744987 0.00400777 0)
(-0.0841786 0.0028377 0)
(-0.0899165 0.00134577 0)
(-0.0909699 -0.000383526 0)
(-0.0869331 -0.00220727 0)
(-0.0778892 -0.00391677 0)
(-0.0645443 -0.00525328 0)
(-0.0482916 -0.00594661 0)
(-0.0311512 -0.00577386 0)
(-0.0155475 -0.0046292 0)
(-0.00390956 -0.00259458 0)
(0.00189208 -8.66771e-05 0)
(0.0015773 0.00152455 0)
(-0.000622546 -0.000510608 0)
(-0.00896294 0.00884131 0)
(-0.0300568 0.0184047 0)
(-0.0603873 0.0249869 0)
(-0.0959847 0.0282403 0)
(-0.133175 0.0284709 0)
(-0.168545 0.0260752 0)
(-0.199043 0.0213994 0)
(-0.222017 0.0147517 0)
(-0.235267 0.00649995 0)
(-0.237207 -0.00281662 0)
(-0.227094 -0.0124101 0)
(-0.205309 -0.0212363 0)
(-0.173573 -0.0280788 0)
(-0.135021 -0.03173 0)
(-0.0940235 -0.031256 0)
(-0.0556718 -0.0263066 0)
(-0.0249216 -0.0174137 0)
(-0.00570012 -0.00641542 0)
(0.000312575 0.00208309 0)
(-0.0030753 0.0064985 0)
(-0.0201058 0.0303336 0)
(-0.0555802 0.0520786 0)
(-0.102994 0.0669049 0)
(-0.156665 0.0739995 0)
(-0.211707 0.0737907 0)
(-0.263493 0.0670376 0)
(-0.307815 0.0545348 0)
(-0.341008 0.0371127 0)
(-0.360067 0.0158053 0)
(-0.362855 -0.00794546 0)
(-0.348404 -0.0321554 0)
(-0.317243 -0.0543078 0)
(-0.271668 -0.0715547 0)
(-0.215836 -0.0811261 0)
(-0.155572 -0.0809243 0)
(-0.0977126 -0.0702175 0)
(-0.0490467 -0.0502812 0)
(-0.0155799 -0.0250323 0)
(-0.00167175 -0.00260521 0)
(-0.00527216 0.0195514 0)
(-0.0305698 0.0642386 0)
(-0.0798795 0.10143 0)
(-0.143258 0.125958 0)
(-0.213219 0.137024 0)
(-0.283906 0.135378 0)
(-0.349856 0.122257 0)
(-0.406109 0.0990129 0)
(-0.448344 0.067133 0)
(-0.47299 0.0284939 0)
(-0.477453 -0.0143418 0)
(-0.460446 -0.0579285 0)
(-0.422368 -0.0979569 0)
(-0.365647 -0.129569 0)
(-0.294954 -0.148008 0)
(-0.217101 -0.14959 0)
(-0.14042 -0.132851 0)
(-0.0736215 -0.0996072 0)
(-0.0253403 -0.0557567 0)
(-0.003461 -0.012573 0)
(-0.00717331 0.0379703 0)
(-0.040023 0.109538 0)
(-0.10225 0.165043 0)
(-0.180489 0.20021 0)
(-0.265445 0.21498 0)
(-0.350411 0.210812 0)
(-0.429325 0.18961 0)
(-0.496751 0.153377 0)
(-0.547937 0.104311 0)
(-0.578878 0.0451612 0)
(-0.586507 -0.0203526 0)
(-0.569031 -0.0872553 0)
(-0.526366 -0.1493 0)
(-0.460624 -0.199343 0)
(-0.376525 -0.230201 0)
(-0.281555 -0.236007 0)
(-0.185518 -0.213901 0)
(-0.099416 -0.165654 0)
(-0.0352336 -0.0987698 0)
(-0.00511018 -0.0275244 0)
(-0.00883653 0.0611619 0)
(-0.0484989 0.165326 0)
(-0.12255 0.241964 0)
(-0.214437 0.288684 0)
(-0.313166 0.306916 0)
(-0.411305 0.2993 0)
(-0.502389 0.268658 0)
(-0.58072 0.217738 0)
(-0.641301 0.149428 0)
(-0.679779 0.0672707 0)
(-0.692565 -0.0239736 0)
(-0.677144 -0.117886 0)
(-0.632574 -0.206259 0)
(-0.560139 -0.279428 0)
(-0.464088 -0.327252 0)
(-0.352197 -0.340829 0)
(-0.235688 -0.314866 0)
(-0.128282 -0.250127 0)
(-0.046207 -0.155199 0)
(-0.00687328 -0.0476266 0)
(-0.010302 0.0886022 0)
(-0.0560418 0.230599 0)
(-0.140693 0.331008 0)
(-0.244814 0.390164 0)
(-0.355885 0.411714 0)
(-0.465912 0.399986 0)
(-0.56824 0.359002 0)
(-0.657133 0.292335 0)
(-0.727547 0.203495 0)
(-0.774904 0.0966202 0)
(-0.795087 -0.0227472 0)
(-0.784686 -0.147003 0)
(-0.741531 -0.266113 0)
(-0.665526 -0.367758 0)
(-0.559768 -0.438269 0)
(-0.431703 -0.464634 0)
(-0.293664 -0.437637 0)
(-0.162378 -0.355536 0)
(-0.0594148 -0.227135 0)
(-0.00904825 -0.0736671 0)
(-0.0115893 0.119796 0)
(-0.062661 0.304266 0)
(-0.156544 0.430747 0)
(-0.271166 0.503065 0)
(-0.392676 0.527812 0)
(-0.512727 0.511544 0)
(-0.624727 0.459788 0)
(-0.723186 0.377025 0)
(-0.803279 0.267264 0)
(-0.860421 0.134959 0)
(-0.890082 -0.0139737 0)
(-0.88791 -0.171191 0)
(-0.850224 -0.325195 0)
(-0.774982 -0.461086 0)
(-0.663284 -0.561209 0)
(-0.521256 -0.607226 0)
(-0.361538 -0.584018 0)
(-0.203778 -0.485046 0)
(-0.0760854 -0.317704 0)
(-0.0119634 -0.10711 0)
(-0.0127189 0.154253 0)
(-0.0683841 0.385161 0)
(-0.169986 0.539498 0)
(-0.292955 0.625325 0)
(-0.422285 0.65297 0)
(-0.549523 0.631819 0)
(-0.668467 0.569248 0)
(-0.774237 0.470739 0)
(-0.862607 0.340669 0)
(-0.929342 0.183458 0)
(-0.9698 0.00487328 0)
(-0.978852 -0.186653 0)
(-0.95123 -0.378813 0)
(-0.882479 -0.554566 0)
(-0.770752 -0.69214 0)
(-0.61945 -0.766741 0)
(-0.440005 -0.754945 0)
(-0.254127 -0.642036 0)
(-0.0974792 -0.430975 0)
(-0.0160008 -0.150125 0)
(-0.0137587 0.191527 0)
(-0.0734017 0.472097 0)
(-0.181143 0.655285 0)
(-0.309819 0.754231 0)
(-0.443389 0.783948 0)
(-0.573616 0.757368 0)
(-0.695108 0.684128 0)
(-0.804067 0.570839 0)
(-0.897364 0.42212 0)
(-0.971637 0.242001 0)
(-1.02266 0.0355047 0)
(-1.04498 -0.189673 0)
(-1.03201 -0.421401 0)
(-0.976684 -0.641448 0)
(-0.873357 -0.824419 0)
(-0.720979 -0.938422 0)
(-0.527378 -0.949181 0)
(-0.314208 -0.82917 0)
(-0.124876 -0.571648 0)
(-0.0216484 -0.205632 0)
(-0.0149039 0.231361 0)
(-0.0783055 0.564054 0)
(-0.190739 0.775887 0)
(-0.321954 0.886268 0)
(-0.454974 0.916187 0)
(-0.582236 0.883017 0)
(-0.69973 0.79914 0)
(-0.805327 0.672463 0)
(-0.897603 0.507765 0)
(-0.974737 0.308368 0)
(-1.03365 0.0779626 0)
(-1.06938 -0.177407 0)
(-1.07467 -0.447071 0)
(-1.04023 -0.71316 0)
(-0.956119 -0.948087 0)
(-0.815126 -1.11326 0)
(-0.618264 -1.16155 0)
(-0.383245 -1.04692 0)
(-0.159526 -0.744457 0)
(-0.02958 -0.277392 0)
(-0.016614 0.274034 0)
(-0.0844465 0.660547 0)
(-0.200547 0.898946 0)
(-0.330516 1.01696 0)
(-0.456641 1.04347 0)
(-0.572798 1.00143 0)
(-0.677164 0.906478 0)
(-0.77 0.76799 0)
(-0.852264 0.590853 0)
(-0.924399 0.377453 0)
(-0.985348 0.129674 0)
(-1.03165 -0.148953 0)
(-1.05661 -0.450643 0)
(-1.04972 -0.759993 0)
(-0.997133 -1.04979 0)
(-0.884297 -1.27685 0)
(-0.701871 -1.38077 0)
(-0.457776 -1.29132 0)
(-0.202471 -0.953091 0)
(-0.0407673 -0.370163 0)
(-0.0198525 0.320999 0)
(-0.0944519 0.7622 0)
(-0.213834 1.02203 0)
(-0.33777 1.14056 0)
(-0.44846 1.15749 0)
(-0.542612 1.10268 0)
(-0.621762 0.995468 0)
(-0.689416 0.846733 0)
(-0.749577 0.661393 0)
(-0.805588 0.440763 0)
(-0.859203 0.184659 0)
(-0.909599 -0.106499 0)
(-0.95213 -0.429092 0)
(-0.976899 -0.772531 0)
(-0.967739 -1.11359 0)
(-0.902978 -1.40884 0)
(-0.760063 -1.58731 0)
(-0.529864 -1.55087 0)
(-0.254033 -1.19825 0)
(-0.0565995 -0.489886 0)
(-0.0265051 0.376028 0)
(-0.112908 0.871394 0)
(-0.235485 1.14229 0)
(-0.346305 1.24924 0)
(-0.429471 1.24703 0)
(-0.487045 1.17371 0)
(-0.5256 1.05236 0)
(-0.552824 0.895006 0)
(-0.576261 0.706346 0)
(-0.602487 0.486526 0)
(-0.636505 0.233303 0)
(-0.680949 -0.0561526 0)
(-0.734731 -0.383111 0)
(-0.790904 -0.743805 0)
(-0.833949 -1.12313 0)
(-0.837535 -1.48391 0)
(-0.765381 -1.75183 0)
(-0.584423 -1.8026 0)
(-0.312469 -1.4741 0)
(-0.0788602 -0.643613 0)
(-0.0400067 0.447094 0)
(-0.146912 0.992498 0)
(-0.270658 1.255 0)
(-0.355548 1.3312 0)
(-0.392818 1.29653 0)
(-0.39417 1.19769 0)
(-0.373323 1.0604 0)
(-0.342899 0.89681 0)
(-0.314024 0.710702 0)
(-0.296234 0.500874 0)
(-0.297518 0.263254 0)
(-0.324054 -0.00777643 0)
(-0.379185 -0.318143 0)
(-0.461134 -0.671754 0)
(-0.559022 -1.06506 0)
(-0.64708 -1.4749 0)
(-0.679134 -1.83574 0)
(-0.59509 -2.00838 0)
(-0.370563 -1.76271 0)
(-0.108925 -0.838543 0)
(-0.0657165 0.5495 0)
(-0.204753 1.13019 0)
(-0.318365 1.34908 0)
(-0.351064 1.36668 0)
(-0.313287 1.28376 0)
(-0.232442 1.15332 0)
(-0.131005 1.00065 0)
(-0.0262675 0.835682 0)
(0.0680916 0.659998 0)
(0.140874 0.470666 0)
(0.182392 0.262162 0)
(0.183948 0.0270796 0)
(0.138148 -0.243749 0)
(0.0405025 -0.560813 0)
(-0.106546 -0.933157 0)
(-0.285259 -1.35816 0)
(-0.449456 -1.79487 0)
(-0.517794 -2.11288 0)
(-0.407802 -2.02698 0)
(-0.144231 -1.08085 0)
(-0.108546 0.712153 0)
(-0.286076 1.28079 0)
(-0.348966 1.39361 0)
(-0.276114 1.31808 0)
(-0.119754 1.17516 0)
(0.0729635 1.01433 0)
(0.272905 0.853987 0)
(0.461275 0.698194 0)
(0.624959 0.544599 0)
(0.753867 0.388143 0)
(0.839043 0.222382 0)
(0.87146 0.0395229 0)
(0.841532 -0.170445 0)
(0.739421 -0.421213 0)
(0.55742 -0.731294 0)
(0.297865 -1.12003 0)
(-0.00897752 -1.58565 0)
(-0.281517 -2.04322 0)
(-0.37606 -2.20062 0)
(-0.16779 -1.3738 0)
(-0.155429 0.978465 0)
(-0.340095 1.40047 0)
(-0.237111 1.30646 0)
(0.0334713 1.11478 0)
(0.355064 0.923787 0)
(0.674853 0.75434 0)
(0.969858 0.608686 0)
(1.22819 0.481925 0)
(1.44302 0.367127 0)
(1.60943 0.257521 0)
(1.72227 0.14675 0)
(1.77492 0.0282526 0)
(1.75844 -0.106053 0)
(1.66061 -0.268169 0)
(1.46554 -0.478194 0)
(1.157 -0.768882 0)
(0.731308 -1.18068 0)
(0.228234 -1.7134 0)
(-0.173245 -2.15954 0)
(-0.118905 -1.67506 0)
(-0.0475441 1.26952 0)
(-0.0720284 1.3169 0)
(0.411496 0.968994 0)
(0.958293 0.70958 0)
(1.42964 0.529374 0)
(1.8233 0.398449 0)
(2.14942 0.301165 0)
(2.41436 0.226155 0)
(2.62289 0.164602 0)
(2.77803 0.110125 0)
(2.88026 0.0580135 0)
(2.92714 0.0042878 0)
(2.91293 -0.0552922 0)
(2.82717 -0.127356 0)
(2.65201 -0.224389 0)
(2.35856 -0.373293 0)
(1.90194 -0.630399 0)
(1.22464 -1.07924 0)
(0.452882 -1.6886 0)
(0.217524 -1.70187 0)
(1.43835 0.707241 0)
(1.83581 0.626614 0)
(2.56349 0.398303 0)
(3.13761 0.251683 0)
(3.51204 0.164268 0)
(3.76925 0.109438 0)
(3.95683 0.0740089 0)
(4.09522 0.0502429 0)
(4.19537 0.0331253 0)
(4.26374 0.0195256 0)
(4.30342 0.00749439 0)
(4.3149 -0.00430632 0)
(4.29634 -0.016955 0)
(4.24297 -0.0321747 0)
(4.14498 -0.0531817 0)
(3.98123 -0.0879858 0)
(3.70249 -0.158362 0)
(3.17441 -0.316167 0)
(2.29958 -0.622771 0)
(1.6683 -0.779888 0)
)
;

boundaryField
{
    movingWall
    {
        type            fixedValue;
        value           uniform (5.07421 0 0);
    }
    fixedWalls
    {
        type            noSlip;
    }
    frontAndBack
    {
        type            empty;
    }
}


// ************************************************************************* //
