/*--------------------------------*- C++ -*----------------------------------*\
  =========                 |
  \\      /  F ield         | OpenFOAM: The Open Source CFD Toolbox
   \\    /   O peration     | Website:  https://openfoam.org
    \\  /    A nd           | Version:  9
     \\/     M anipulation  |
\*---------------------------------------------------------------------------*/
FoamFile
{
    format      ascii;
    class       volScalarField;
    location    "0.07";
    object      p;
}
// * * * * * * * * * * * * * * * * * * * * * * * * * * * * * * * * * * * * * //

dimensions      [0 2 -2 0 0 0 0];

internalField   nonuniform List<scalar> 
40
(
-0.766764
-0.767959
-0.767433
-0.769919
-0.776204
-0.772582
-0.777136
-0.781592
-0.789866
-0.807154
-0.771339
-0.777824
-0.787634
-0.758071
-0.768178
-0.788648
-0.726403
-0.743187
-0.78335
-0.668976
-0.699591
-0.778127
-0.577572
-0.629826
-0.74441
-0.447784
-0.533771
-0.670063
-0.277023
-0.406419
-0.537259
-0.0395176
-0.170003
-0.259543
0.496744
0.339583
0.0697813
1.09852
0.64976
-0.0402867
)
;

boundaryField
{
    movingWall
    {
        type            zeroGradient;
    }
    fixedWalls
    {
        type            zeroGradient;
    }
    frontAndBack
    {
        type            empty;
    }
    procBoundary1to0
    {
        type            processor;
        value           nonuniform List<scalar> 5(-0.757931 -0.758364 -0.759893 -0.765489 -0.780386);
    }
    procBoundary1to3
    {
        type            processor;
        value           nonuniform List<scalar> 8(-0.817962 -0.818038 -0.845506 -0.849921 -0.818038 -0.843617 -0.868598 -0.88677);
    }
    procBoundary1to4
    {
        type            processor;
        value           nonuniform List<scalar> 6(-0.888454 -0.85593 -0.708805 -0.454323 -0.379681 -0.780537);
    }
}


// ************************************************************************* //
