/*--------------------------------*- C++ -*----------------------------------*\
  =========                 |
  \\      /  F ield         | OpenFOAM: The Open Source CFD Toolbox
   \\    /   O peration     | Website:  https://openfoam.org
    \\  /    A nd           | Version:  8
     \\/     M anipulation  |
\*---------------------------------------------------------------------------*/
FoamFile
{
    version     2.0;
    format      ascii;
    class       volScalarField;
    location    "1";
    object      p;
}
// * * * * * * * * * * * * * * * * * * * * * * * * * * * * * * * * * * * * * //

dimensions      [0 2 -2 0 0 0 0];

internalField   nonuniform List<scalar> 
400
(
-0.099191
-0.19819
-0.251343
-0.276725
-0.280359
-0.268143
-0.243201
-0.206119
-0.159543
-0.106464
-0.0491161
0.0103164
0.0690672
0.123993
0.172221
0.211702
0.241443
0.261428
0.27244
0.276102
-0.198577
-0.239057
-0.268589
-0.283741
-0.282726
-0.267871
-0.241526
-0.204385
-0.158634
-0.10663
-0.0501913
0.00865893
0.0671397
0.121976
0.170099
0.209289
0.238476
0.257587
0.266985
0.266632
-0.25028
-0.268491
-0.280298
-0.284701
-0.277372
-0.260021
-0.233949
-0.198849
-0.156267
-0.107983
-0.0551436
0.000789271
0.0572305
0.110676
0.157579
0.19529
0.222627
0.239732
0.247173
0.24542
-0.27329
-0.280789
-0.280794
-0.276599
-0.263972
-0.244842
-0.220093
-0.188593
-0.151261
-0.109261
-0.0628279
-0.0124829
0.0396857
0.0900408
0.134482
0.169798
0.194555
0.20902
0.214106
0.21085
-0.278116
-0.279148
-0.271699
-0.261105
-0.244143
-0.223592
-0.200505
-0.173183
-0.142058
-0.107974
-0.0703756
-0.0286094
0.0161559
0.0605364
0.100152
0.131404
0.152627
0.163998
0.166729
0.162255
-0.270427
-0.267721
-0.25581
-0.241127
-0.221187
-0.199809
-0.178708
-0.155818
-0.131066
-0.105498
-0.0783602
-0.0478763
-0.0138075
0.0214072
0.0536851
0.0793333
0.0964092
0.104703
0.105669
0.100921
-0.255851
-0.251914
-0.238342
-0.222295
-0.201324
-0.180033
-0.16124
-0.142829
-0.123734
-0.105655
-0.0887793
-0.0708722
-0.0500191
-0.0268363
-0.00417215
0.0147481
0.02771
0.0336987
0.0341118
0.0303889
-0.239717
-0.236875
-0.224581
-0.210368
-0.191058
-0.171333
-0.155384
-0.141997
-0.127946
-0.115268
-0.106426
-0.100135
-0.0931202
-0.0834329
-0.071581
-0.0595335
-0.0496773
-0.0443478
-0.0428862
-0.0446404
-0.224456
-0.22497
-0.216964
-0.208287
-0.194517
-0.179177
-0.167229
-0.160788
-0.153015
-0.144395
-0.140264
-0.142201
-0.146812
-0.14952
-0.147626
-0.140997
-0.13197
-0.124767
-0.120592
-0.120583
-0.208295
-0.213856
-0.21282
-0.213501
-0.210394
-0.204615
-0.198743
-0.202551
-0.205441
-0.202849
-0.201585
-0.207498
-0.219097
-0.23023
-0.23493
-0.230378
-0.218519
-0.205939
-0.197232
-0.196816
-0.185095
-0.196243
-0.204708
-0.218482
-0.231807
-0.244186
-0.248163
-0.265535
-0.285414
-0.295085
-0.29902
-0.30675
-0.320443
-0.334399
-0.340493
-0.333261
-0.313806
-0.291126
-0.274791
-0.274586
-0.145688
-0.162279
-0.184375
-0.216199
-0.251028
-0.29315
-0.314506
-0.347704
-0.388655
-0.417693
-0.432857
-0.444186
-0.457442
-0.469324
-0.471686
-0.457265
-0.425479
-0.386678
-0.356153
-0.352123
-0.0812368
-0.104282
-0.148076
-0.207384
-0.266917
-0.347453
-0.398282
-0.450742
-0.512003
-0.562694
-0.594152
-0.612771
-0.625344
-0.631848
-0.626929
-0.6033
-0.556868
-0.495768
-0.439168
-0.418786
0.0130334
-0.0209008
-0.0965216
-0.197966
-0.286051
-0.398687
-0.487409
-0.567484
-0.649663
-0.721456
-0.77183
-0.799579
-0.807574
-0.801568
-0.784507
-0.752098
-0.693691
-0.607888
-0.510299
-0.452928
0.138518
0.083653
-0.0259134
-0.174974
-0.303506
-0.42604
-0.541741
-0.658253
-0.774543
-0.878131
-0.957669
-1.0001
-0.983955
-0.941712
-0.896883
-0.852516
-0.788603
-0.685122
-0.539845
-0.425901
0.302388
0.209315
0.0780041
-0.084251
-0.265924
-0.397453
-0.527773
-0.690009
-0.875566
-1.05241
-1.18739
-1.24065
-1.18325
-1.05199
-0.91819
-0.826671
-0.753949
-0.652124
-0.480586
-0.31018
0.525318
0.382813
0.239315
0.116737
-0.0926492
-0.292283
-0.515559
-0.783062
-1.07194
-1.33397
-1.51662
-1.57736
-1.49701
-1.26429
-0.955189
-0.669156
-0.483408
-0.390365
-0.26551
-0.0889606
0.837574
0.690317
0.54365
0.366889
0.0752821
-0.269941
-0.665415
-1.06772
-1.41643
-1.67922
-1.84528
-1.90916
-1.86029
-1.66551
-1.2746
-0.695702
-0.132237
0.200111
0.247566
0.31497
1.45481
1.25572
0.951906
0.482107
-0.10647
-0.645573
-1.08661
-1.44613
-1.73116
-1.94238
-2.08164
-2.14877
-2.13428
-2.00989
-1.7204
-1.17965
-0.311033
0.604631
1.1029
1.19953
2.10031
1.62332
0.830444
-0.00145214
-0.58505
-1.00291
-1.34206
-1.62803
-1.86108
-2.03903
-2.16175
-2.22796
-2.22912
-2.14484
-1.94206
-1.57573
-0.944914
0.126339
1.46188
2.18988
)
;

boundaryField
{
    movingWall
    {
        type            zeroGradient;
    }
    fixedWalls
    {
        type            zeroGradient;
    }
    frontAndBack
    {
        type            empty;
    }
}


// ************************************************************************* //
