/*--------------------------------*- C++ -*----------------------------------*\
  =========                 |
  \\      /  F ield         | OpenFOAM: The Open Source CFD Toolbox
   \\    /   O peration     | Website:  https://openfoam.org
    \\  /    A nd           | Version:  8
     \\/     M anipulation  |
\*---------------------------------------------------------------------------*/
FoamFile
{
    version     2.0;
    format      ascii;
    class       surfaceScalarField;
    location    "1";
    object      phi;
}
// * * * * * * * * * * * * * * * * * * * * * * * * * * * * * * * * * * * * * //

dimensions      [0 3 -1 0 0 0 0];

internalField   nonuniform List<scalar> 
760
(
6.39983e-08
-6.41633e-08
-1.33901e-07
1.979e-07
-6.01424e-07
4.67527e-07
-1.2498e-06
6.48375e-07
-1.98625e-06
7.36452e-07
-2.72973e-06
7.43473e-07
-3.41132e-06
6.8159e-07
-3.97164e-06
5.60327e-07
-4.35902e-06
3.87377e-07
-4.53069e-06
1.71667e-07
-4.45741e-06
-7.32742e-08
-4.13049e-06
-3.26919e-07
-3.56907e-06
-5.61421e-07
-2.82532e-06
-7.43747e-07
-1.9847e-06
-8.40625e-07
-1.15893e-06
-8.25771e-07
-4.70604e-07
-6.88323e-07
-2.98181e-08
-4.40786e-07
1.02205e-07
-1.3202e-07
1.02209e-07
-1.96279e-07
1.32106e-07
-9.66147e-07
9.67775e-07
-2.25677e-06
1.75816e-06
-3.90608e-06
2.29768e-06
-5.72803e-06
2.5584e-06
-7.54389e-06
2.55933e-06
-9.19217e-06
2.32988e-06
-1.05307e-05
1.8989e-06
-1.14384e-05
1.29502e-06
-1.18201e-05
5.53402e-07
-1.16172e-05
-2.76225e-07
-1.08198e-05
-1.12426e-06
-9.48007e-06
-1.90117e-06
-7.71905e-06
-2.50477e-06
-5.72459e-06
-2.83508e-06
-3.73444e-06
-2.81592e-06
-2.00261e-06
-2.42016e-06
-7.50153e-07
-1.69325e-06
-1.03262e-07
-7.7892e-07
-1.04972e-09
-5.06145e-07
6.38256e-07
-1.89237e-06
2.354e-06
-3.96722e-06
3.833e-06
-6.49027e-06
4.82073e-06
-9.20873e-06
5.27687e-06
-1.18805e-05
5.23108e-06
-1.42842e-05
4.73355e-06
-1.62235e-05
3.83821e-06
-1.75317e-05
2.60324e-06
-1.80799e-05
1.10163e-06
-1.77899e-05
-5.66186e-07
-1.66501e-05
-2.26406e-06
-1.47305e-05
-3.82079e-06
-1.21922e-05
-5.04315e-06
-9.28465e-06
-5.74258e-06
-6.32625e-06
-5.77432e-06
-3.66273e-06
-5.08368e-06
-1.60751e-06
-3.74848e-06
-3.71326e-07
-2.0151e-06
-3.72374e-07
-7.89441e-07
1.4277e-06
-2.76847e-06
4.33303e-06
-5.58757e-06
6.6521e-06
-8.91255e-06
8.1457e-06
-1.2428e-05
8.79235e-06
-1.58442e-05
8.64726e-06
-1.88997e-05
7.78902e-06
-2.13631e-05
6.30159e-06
-2.3037e-05
4.27722e-06
-2.37671e-05
1.83173e-06
-2.34557e-05
-8.77593e-07
-2.20798e-05
-3.64001e-06
-1.97093e-05
-6.19129e-06
-1.65212e-05
-8.23123e-06
-1.28025e-05
-9.46133e-06
-8.93384e-06
-9.64295e-06
-5.349e-06
-8.66851e-06
-2.46922e-06
-6.62826e-06
-6.262e-07
-3.85812e-06
-9.98573e-07
-1.04183e-06
2.46953e-06
-3.56986e-06
6.86106e-06
-7.08305e-06
1.01653e-05
-1.11504e-05
1.22131e-05
-1.53965e-05
1.30385e-05
-1.94931e-05
1.27438e-05
-2.31515e-05
1.14474e-05
-2.61177e-05
9.26785e-06
-2.8173e-05
6.33252e-06
-2.91402e-05
2.79887e-06
-2.88969e-05
-1.1208e-06
-2.73956e-05
-5.14136e-06
-2.46859e-05
-8.90103e-06
-2.09376e-05
-1.19794e-05
-1.64556e-05
-1.39434e-05
-1.16745e-05
-1.4424e-05
-7.12472e-06
-1.32183e-05
-3.36267e-06
-1.03903e-05
-8.77053e-07
-6.34373e-06
-1.87563e-06
-1.26679e-06
3.73632e-06
-4.29425e-06
9.88852e-06
-8.44396e-06
1.4315e-05
-1.31932e-05
1.69623e-05
-1.81118e-05
1.79571e-05
-2.28413e-05
1.74733e-05
-2.70761e-05
1.56821e-05
-3.05497e-05
1.27414e-05
-3.30284e-05
8.81129e-06
-3.43135e-05
4.08396e-06
-3.42516e-05
-1.18267e-06
-3.27553e-05
-6.63765e-06
-2.9832e-05
-1.18244e-05
-2.56186e-05
-1.61928e-05
-2.04144e-05
-1.91476e-05
-1.46974e-05
-2.01411e-05
-9.10411e-06
-1.88115e-05
-4.35861e-06
-1.51358e-05
-1.15181e-06
-9.55053e-06
-3.02743e-06
-1.46667e-06
5.20299e-06
-4.94091e-06
1.33628e-05
-9.66114e-06
1.90353e-05
-1.50214e-05
2.23226e-05
-2.05447e-05
2.34804e-05
-2.58518e-05
2.27805e-05
-3.06311e-05
2.04615e-05
-3.46143e-05
1.67246e-05
-3.7561e-05
1.1758e-05
-3.92537e-05
5.77657e-06
-3.95034e-05
-9.32885e-07
-3.81698e-05
-7.97127e-06
-3.51946e-05
-1.47995e-05
-3.06509e-05
-2.07366e-05
-2.47998e-05
-2.49987e-05
-1.81388e-05
-2.68022e-05
-1.14107e-05
-2.55396e-05
-5.54071e-06
-2.10058e-05
-1.48281e-06
-1.36084e-05
-4.51025e-06
-1.64211e-06
6.8451e-06
-5.50686e-06
1.72275e-05
-1.07201e-05
2.42485e-05
-1.66007e-05
2.82032e-05
-2.26343e-05
2.9514e-05
-2.8433e-05
2.85792e-05
-3.36926e-05
2.5721e-05
-3.81566e-05
2.11885e-05
-4.15899e-05
1.51913e-05
-4.37646e-05
7.95132e-06
-4.44584e-05
-2.39067e-07
-4.34695e-05
-8.96017e-06
-4.06531e-05
-1.7616e-05
-3.59827e-05
-2.54069e-05
-2.9635e-05
-3.13464e-05
-2.20819e-05
-3.43553e-05
-1.41506e-05
-3.34709e-05
-6.99256e-06
-2.81638e-05
-1.9041e-06
-1.86969e-05
-6.41434e-06
-1.79391e-06
8.63901e-06
-5.99008e-06
2.14237e-05
-1.16047e-05
2.98631e-05
-1.78864e-05
3.44849e-05
-2.42939e-05
3.59215e-05
-3.04449e-05
3.47302e-05
-3.60599e-05
3.13361e-05
-4.09128e-05
2.60415e-05
-4.47926e-05
1.9071e-05
-4.74774e-05
1.06362e-05
-4.87231e-05
1.00661e-06
-4.82691e-05
-9.41413e-06
-4.58706e-05
-2.00144e-05
-4.13663e-05
-2.99113e-05
-3.47888e-05
-3.79238e-05
-2.65108e-05
-4.26333e-05
-1.73849e-05
-4.25968e-05
-8.78851e-06
-3.67602e-05
-2.4513e-06
-2.50341e-05
-8.86564e-06
-1.92732e-06
1.05663e-05
-6.39887e-06
2.58953e-05
-1.23097e-05
3.57739e-05
-1.88369e-05
4.10121e-05
-2.54234e-05
4.2508e-05
-3.17115e-05
4.10183e-05
-3.74688e-05
3.70934e-05
-4.25235e-05
3.10962e-05
-4.6714e-05
2.32616e-05
-4.98512e-05
1.37734e-05
-5.16939e-05
2.84927e-06
-5.19408e-05
-9.16726e-06
-5.02493e-05
-2.17059e-05
-4.62973e-05
-3.38632e-05
-3.99086e-05
-4.43125e-05
-3.12529e-05
-5.1289e-05
-2.1095e-05
-5.27547e-05
-1.09833e-05
-4.68719e-05
-3.16312e-06
-3.28542e-05
-1.20288e-05
-2.05935e-06
1.26257e-05
-6.76713e-06
3.0603e-05
-1.28591e-05
4.18659e-05
-1.94322e-05
4.75852e-05
-2.59286e-05
4.90044e-05
-3.20409e-05
4.71306e-05
-3.76125e-05
4.2665e-05
-4.25561e-05
3.60397e-05
-4.67912e-05
2.74967e-05
-5.01966e-05
1.71787e-05
-5.2572e-05
5.2247e-06
-5.36131e-05
-8.1262e-06
-5.29059e-05
-2.2413e-05
-4.99654e-05
-3.68038e-05
-4.43515e-05
-4.99264e-05
-3.59074e-05
-5.97332e-05
-2.51318e-05
-6.35303e-05
-1.35944e-05
-5.84093e-05
-4.08346e-06
-4.23652e-05
-1.61122e-05
-2.23031e-06
1.4856e-05
-7.17525e-06
3.5548e-05
-1.33284e-05
4.8019e-05
-1.9692e-05
5.39489e-05
-2.5735e-05
5.50473e-05
-3.12391e-05
5.26348e-05
-3.61614e-05
4.75873e-05
-4.05338e-05
4.04121e-05
-4.43918e-05
3.13548e-05
-4.77214e-05
2.05082e-05
-5.04115e-05
7.91478e-06
-5.22102e-05
-6.32749e-06
-5.26888e-05
-2.19345e-05
-5.12354e-05
-3.82572e-05
-4.71278e-05
-5.4034e-05
-3.97651e-05
-6.70959e-05
-2.91443e-05
-7.41512e-05
-1.65704e-05
-7.09831e-05
-5.26332e-06
-5.36723e-05
-2.13755e-05
-2.52249e-06
1.73785e-05
-7.77578e-06
4.08013e-05
-1.38591e-05
5.41024e-05
-1.96754e-05
5.97651e-05
-2.47768e-05
6.01488e-05
-2.90974e-05
5.69553e-05
-3.27574e-05
5.12474e-05
-3.59456e-05
4.36002e-05
-3.88459e-05
3.42551e-05
-4.15869e-05
2.32493e-05
-4.41941e-05
1.0522e-05
-4.6534e-05
-3.98765e-06
-4.82467e-05
-2.02218e-05
-4.86802e-05
-3.78236e-05
-4.68782e-05
-5.5836e-05
-4.17324e-05
-7.22416e-05
-3.24844e-05
-8.33992e-05
-1.97332e-05
-8.37343e-05
-6.7591e-06
-6.66464e-05
-2.81346e-05
-3.09013e-06
2.04686e-05
-8.81584e-06
4.6527e-05
-1.46427e-05
5.99292e-05
-1.94226e-05
6.4545e-05
-2.29133e-05
6.36395e-05
-2.53008e-05
5.93428e-05
-2.69329e-05
5.28794e-05
-2.81904e-05
4.48577e-05
-2.94262e-05
3.54909e-05
-3.09305e-05
2.47536e-05
-3.28966e-05
1.2488e-05
-3.53665e-05
-1.5177e-06
-3.81454e-05
-1.74429e-05
-4.06749e-05
-3.5294e-05
-4.19046e-05
-5.46064e-05
-4.02743e-05
-7.38719e-05
-3.40859e-05
-8.95876e-05
-2.26739e-05
-9.51463e-05
-8.61507e-06
-8.07053e-05
-3.67497e-05
-4.20046e-06
2.46691e-05
-1.06215e-05
5.2948e-05
-1.57963e-05
6.51039e-05
-1.87442e-05
6.7493e-05
-1.96719e-05
6.45672e-05
-1.91655e-05
5.88364e-05
-1.78696e-05
5.15835e-05
-1.63773e-05
4.33654e-05
-1.5204e-05
3.43176e-05
-1.47879e-05
2.43375e-05
-1.54852e-05
1.31853e-05
-1.75375e-05
5.34569e-07
-2.09902e-05
-1.39903e-05
-2.55338e-05
-3.07504e-05
-3.02574e-05
-4.98827e-05
-3.33866e-05
-7.07427e-05
-3.23073e-05
-9.06669e-05
-2.4558e-05
-0.000102896
-1.07891e-05
-9.44741e-05
-4.75388e-05
-6.24696e-06
3.0916e-05
-1.34058e-05
6.01069e-05
-1.69247e-05
6.86228e-05
-1.66383e-05
6.72066e-05
-1.3628e-05
6.15569e-05
-9.05155e-06
5.42599e-05
-3.88351e-06
4.64155e-05
1.10266e-06
3.83792e-05
5.28742e-06
3.01329e-05
8.14891e-06
2.1476e-05
9.2264e-06
1.21078e-05
8.11404e-06
1.64693e-06
4.51008e-06
-1.03863e-05
-1.64458e-06
-2.45958e-05
-9.86073e-06
-4.16665e-05
-1.85937e-05
-6.20097e-05
-2.4713e-05
-8.45475e-05
-2.3752e-05
-0.000103857
-1.29157e-05
-0.00010531
-6.04545e-05
-9.56198e-06
4.0478e-05
-1.64277e-05
6.69726e-05
-1.58225e-05
6.80176e-05
-9.89018e-06
6.12743e-05
-1.12588e-06
5.27926e-05
8.70477e-06
4.44293e-05
1.84216e-05
3.66987e-05
2.72276e-05
2.95732e-05
3.45458e-05
2.28147e-05
3.99012e-05
1.61206e-05
4.28438e-05
9.1652e-06
4.29053e-05
1.58547e-06
3.95976e-05
-7.07857e-06
3.24762e-05
-1.74743e-05
2.13844e-05
-3.05748e-05
7.05618e-06
-4.76815e-05
-7.76869e-06
-6.97227e-05
-1.72144e-05
-9.4411e-05
-1.37645e-05
-0.00010876
-7.4219e-05
-1.34319e-05
5.39099e-05
-1.50825e-05
6.86233e-05
-5.09825e-06
5.80334e-05
9.81175e-06
4.63643e-05
2.58443e-05
3.676e-05
4.12153e-05
2.90583e-05
5.50445e-05
2.28694e-05
6.68679e-05
1.77498e-05
7.6397e-05
1.32856e-05
8.33804e-05
9.1372e-06
8.75236e-05
5.02199e-06
8.84345e-05
6.74612e-07
8.55875e-05
-4.23155e-06
7.82763e-05
-1.01632e-05
6.56722e-05
-1.79706e-05
4.71949e-05
-2.92043e-05
2.37985e-05
-4.63262e-05
7.12097e-07
-7.13246e-05
-1.02181e-05
-9.78301e-05
-8.44371e-05
-9.41068e-06
6.33206e-05
8.82254e-06
5.039e-05
3.51848e-05
3.16711e-05
6.00429e-05
2.15062e-05
8.1493e-05
1.53099e-05
9.94643e-05
1.1087e-05
0.000114215
8.11833e-06
0.00012603
5.9352e-06
0.000135113
4.2029e-06
0.000141548
2.70201e-06
0.000145285
1.28517e-06
0.000146116
-1.57013e-07
0.000143652
-1.76695e-06
0.000137189
-3.70073e-06
0.000125557
-6.3389e-06
0.000106907
-1.05535e-05
7.90867e-05
-1.85062e-05
4.22987e-05
-3.45367e-05
6.89923e-06
-6.24306e-05
-7.75379e-05
6.33206e-05
0.000113711
0.000145382
0.000166888
0.000182198
0.000193285
0.000201403
0.000207338
0.000211541
0.000214243
0.000215528
0.000215371
0.000213605
0.000209904
0.000203565
0.000193011
0.000174505
0.000139969
7.75379e-05
)
;

boundaryField
{
    movingWall
    {
        type            calculated;
        value           uniform 0;
    }
    fixedWalls
    {
        type            calculated;
        value           uniform 0;
    }
    frontAndBack
    {
        type            empty;
        value           nonuniform List<scalar> 0();
    }
}


// ************************************************************************* //
