/*--------------------------------*- C++ -*----------------------------------*\
  =========                 |
  \\      /  F ield         | OpenFOAM: The Open Source CFD Toolbox
   \\    /   O peration     | Website:  https://openfoam.org
    \\  /    A nd           | Version:  8
     \\/     M anipulation  |
\*---------------------------------------------------------------------------*/
FoamFile
{
    version     2.0;
    format      ascii;
    class       volVectorField;
    location    "1";
    object      U;
}
// * * * * * * * * * * * * * * * * * * * * * * * * * * * * * * * * * * * * * //

dimensions      [0 1 -1 0 0 0 0];

internalField   nonuniform List<vector> 
400
(
(0.00120399 -0.00120815 0)
(0.000401453 0.000673074 0)
(-0.00645211 0.0028679 0)
(-0.0179709 0.00434121 0)
(-0.032179 0.0050701 0)
(-0.0473038 0.00518635 0)
(-0.06184 0.00480684 0)
(-0.0745055 0.00400815 0)
(-0.0841863 0.002838 0)
(-0.0899248 0.00134594 0)
(-0.0909784 -0.000383532 0)
(-0.0869413 -0.00220747 0)
(-0.0778965 -0.00391716 0)
(-0.0645503 -0.00525381 0)
(-0.0482959 -0.0059472 0)
(-0.0311538 -0.00577441 0)
(-0.0155486 -0.0046296 0)
(-0.00390965 -0.00259475 0)
(0.00189238 -8.66083e-05 0)
(0.00157747 0.00152472 0)
(-0.000623346 -0.000512389 0)
(-0.00896513 0.00884084 0)
(-0.0300606 0.0184057 0)
(-0.0603936 0.0249888 0)
(-0.0959941 0.0282427 0)
(-0.133188 0.0284734 0)
(-0.168561 0.0260776 0)
(-0.199062 0.0214014 0)
(-0.222037 0.0147532 0)
(-0.23529 0.00650068 0)
(-0.237229 -0.00281679 0)
(-0.227115 -0.0124113 0)
(-0.205328 -0.0212384 0)
(-0.173589 -0.0280816 0)
(-0.135033 -0.0317332 0)
(-0.0940318 -0.031259 0)
(-0.0556764 -0.026309 0)
(-0.0249234 -0.0174151 0)
(-0.00570037 -0.00641574 0)
(0.000312669 0.00208342 0)
(-0.00307593 0.00649831 0)
(-0.0201085 0.0303355 0)
(-0.0555863 0.0520826 0)
(-0.103005 0.0669105 0)
(-0.15668 0.0740059 0)
(-0.211727 0.0737972 0)
(-0.263518 0.0670436 0)
(-0.307844 0.05454 0)
(-0.34104 0.0371164 0)
(-0.360101 0.015807 0)
(-0.36289 -0.00794601 0)
(-0.348438 -0.0321584 0)
(-0.317274 -0.0543132 0)
(-0.271694 -0.0715618 0)
(-0.215857 -0.0811341 0)
(-0.155586 -0.0809322 0)
(-0.0977212 -0.070224 0)
(-0.0490507 -0.0502855 0)
(-0.015581 -0.0250341 0)
(-0.0016718 -0.00260513 0)
(-0.00527282 0.019553 0)
(-0.0305732 0.064244 0)
(-0.0798876 0.101439 0)
(-0.143272 0.125969 0)
(-0.21324 0.137036 0)
(-0.283933 0.13539 0)
(-0.349889 0.122269 0)
(-0.406148 0.0990224 0)
(-0.448387 0.0671398 0)
(-0.473035 0.0284971 0)
(-0.477499 -0.0143427 0)
(-0.460491 -0.0579339 0)
(-0.422409 -0.0979664 0)
(-0.365683 -0.129581 0)
(-0.294983 -0.148023 0)
(-0.217122 -0.149605 0)
(-0.140433 -0.132864 0)
(-0.073628 -0.0996161 0)
(-0.0253423 -0.0557612 0)
(-0.0034612 -0.0125736 0)
(-0.00717408 0.0379739 0)
(-0.0400271 0.109547 0)
(-0.10226 0.165058 0)
(-0.180506 0.200228 0)
(-0.265471 0.214999 0)
(-0.350444 0.210831 0)
(-0.429366 0.189627 0)
(-0.496798 0.153392 0)
(-0.547989 0.104322 0)
(-0.578934 0.0451665 0)
(-0.586565 -0.0203536 0)
(-0.569087 -0.0872632 0)
(-0.526419 -0.149314 0)
(-0.460671 -0.199362 0)
(-0.376563 -0.230224 0)
(-0.281583 -0.23603 0)
(-0.185536 -0.213922 0)
(-0.0994254 -0.16567 0)
(-0.0352366 -0.0987781 0)
(-0.00511053 -0.0275262 0)
(-0.00883744 0.0611677 0)
(-0.0485036 0.165342 0)
(-0.122561 0.241986 0)
(-0.214457 0.28871 0)
(-0.313196 0.306944 0)
(-0.411343 0.299327 0)
(-0.502437 0.268684 0)
(-0.580776 0.217759 0)
(-0.641363 0.149444 0)
(-0.679846 0.067279 0)
(-0.692634 -0.0239741 0)
(-0.677213 -0.117897 0)
(-0.632639 -0.206279 0)
(-0.560198 -0.279456 0)
(-0.464136 -0.327285 0)
(-0.352233 -0.340864 0)
(-0.235713 -0.314898 0)
(-0.128295 -0.250151 0)
(-0.0462113 -0.155213 0)
(-0.00687381 -0.0476301 0)
(-0.010303 0.0886108 0)
(-0.0560472 0.230621 0)
(-0.140706 0.331038 0)
(-0.244836 0.390199 0)
(-0.355917 0.411751 0)
(-0.465955 0.400023 0)
(-0.568293 0.359036 0)
(-0.657195 0.292364 0)
(-0.727617 0.203517 0)
(-0.77498 0.0966328 0)
(-0.795166 -0.0227462 0)
(-0.784767 -0.147015 0)
(-0.741609 -0.266138 0)
(-0.665597 -0.367794 0)
(-0.559828 -0.438313 0)
(-0.43175 -0.464682 0)
(-0.293695 -0.437681 0)
(-0.162395 -0.355571 0)
(-0.0594207 -0.227156 0)
(-0.00904903 -0.073673 0)
(-0.0115904 0.119807 0)
(-0.0626667 0.304294 0)
(-0.156558 0.430787 0)
(-0.27119 0.503111 0)
(-0.392711 0.52786 0)
(-0.512773 0.511592 0)
(-0.624784 0.459833 0)
(-0.723253 0.377063 0)
(-0.803355 0.267294 0)
(-0.860505 0.134977 0)
(-0.890171 -0.0139697 0)
(-0.888001 -0.171203 0)
(-0.850314 -0.325224 0)
(-0.775065 -0.461131 0)
(-0.663357 -0.561267 0)
(-0.521314 -0.607289 0)
(-0.361578 -0.584079 0)
(-0.2038 -0.485096 0)
(-0.0760935 -0.317735 0)
(-0.0119645 -0.107119 0)
(-0.0127201 0.154268 0)
(-0.06839 0.385196 0)
(-0.17 0.539546 0)
(-0.29298 0.625381 0)
(-0.42232 0.65303 0)
(-0.54957 0.631878 0)
(-0.668525 0.569303 0)
(-0.774306 0.470788 0)
(-0.862687 0.340708 0)
(-0.929431 0.183483 0)
(-0.969895 0.00488193 0)
(-0.978952 -0.186664 0)
(-0.95133 -0.378845 0)
(-0.882574 -0.554619 0)
(-0.770838 -0.69221 0)
(-0.619521 -0.766822 0)
(-0.440056 -0.755026 0)
(-0.254156 -0.642104 0)
(-0.0974902 -0.431019 0)
(-0.0160025 -0.150139 0)
(-0.0137598 0.191544 0)
(-0.0734074 0.47214 0)
(-0.181157 0.655342 0)
(-0.309843 0.754298 0)
(-0.443424 0.784019 0)
(-0.573662 0.757439 0)
(-0.695165 0.684195 0)
(-0.804136 0.570899 0)
(-0.897443 0.422169 0)
(-0.971726 0.242035 0)
(-1.02276 0.0355198 0)
(-1.04509 -0.189681 0)
(-1.03211 -0.421434 0)
(-0.976789 -0.641507 0)
(-0.873454 -0.824501 0)
(-0.721062 -0.938521 0)
(-0.52744 -0.949283 0)
(-0.314245 -0.82926 0)
(-0.124891 -0.571709 0)
(-0.0216509 -0.205652 0)
(-0.0149049 0.231382 0)
(-0.0783108 0.564103 0)
(-0.190752 0.775953 0)
(-0.321976 0.886345 0)
(-0.455006 0.916269 0)
(-0.582278 0.883099 0)
(-0.699783 0.799218 0)
(-0.80539 0.672534 0)
(-0.897676 0.507824 0)
(-0.974821 0.308412 0)
(-1.03375 0.077986 0)
(-1.06948 -0.177409 0)
(-1.07478 -0.447102 0)
(-1.04034 -0.713222 0)
(-0.956223 -0.948179 0)
(-0.815219 -1.11338 0)
(-0.618337 -1.16167 0)
(-0.383292 -1.04704 0)
(-0.159546 -0.744538 0)
(-0.0295836 -0.277421 0)
(-0.0166149 0.274058 0)
(-0.0844511 0.660602 0)
(-0.200558 0.899021 0)
(-0.330535 1.01705 0)
(-0.456668 1.04357 0)
(-0.572834 1.00152 0)
(-0.677209 0.906566 0)
(-0.770054 0.768071 0)
(-0.852327 0.590923 0)
(-0.924471 0.377507 0)
(-0.98543 0.129707 0)
(-1.03175 -0.148947 0)
(-1.05671 -0.450669 0)
(-1.04982 -0.760055 0)
(-0.997238 -1.04988 0)
(-0.884395 -1.27698 0)
(-0.701953 -1.38092 0)
(-0.457831 -1.29147 0)
(-0.202497 -0.953198 0)
(-0.0407725 -0.370203 0)
(-0.0198533 0.321025 0)
(-0.0944561 0.762261 0)
(-0.213844 1.02211 0)
(-0.337786 1.14066 0)
(-0.448483 1.15759 0)
(-0.542641 1.10278 0)
(-0.621797 0.995563 0)
(-0.689457 0.846822 0)
(-0.749625 0.661471 0)
(-0.805644 0.440826 0)
(-0.859267 0.184701 0)
(-0.909671 -0.106484 0)
(-0.952212 -0.42911 0)
(-0.976989 -0.772587 0)
(-0.967834 -1.11369 0)
(-0.903073 -1.40898 0)
(-0.760149 -1.58748 0)
(-0.529927 -1.55104 0)
(-0.254065 -1.19838 0)
(-0.0566069 -0.489941 0)
(-0.0265061 0.376056 0)
(-0.112913 0.871459 0)
(-0.235494 1.14238 0)
(-0.346319 1.24934 0)
(-0.429489 1.24713 0)
(-0.487066 1.17382 0)
(-0.525624 1.05246 0)
(-0.55285 0.8951 0)
(-0.57629 0.706429 0)
(-0.60252 0.486595 0)
(-0.636543 0.233352 0)
(-0.680993 -0.0561288 0)
(-0.734784 -0.38312 0)
(-0.790966 -0.743852 0)
(-0.834022 -1.12322 0)
(-0.837616 -1.48405 0)
(-0.765462 -1.75201 0)
(-0.584491 -1.8028 0)
(-0.312508 -1.47427 0)
(-0.0788707 -0.643688 0)
(-0.0400084 0.447124 0)
(-0.146918 0.992568 0)
(-0.270669 1.25509 0)
(-0.355562 1.3313 0)
(-0.392833 1.29663 0)
(-0.394185 1.19779 0)
(-0.373336 1.0605 0)
(-0.34291 0.896904 0)
(-0.314032 0.710787 0)
(-0.296241 0.500945 0)
(-0.297525 0.263307 0)
(-0.324063 -0.00774645 0)
(-0.379199 -0.318143 0)
(-0.461157 -0.67179 0)
(-0.559058 -1.06514 0)
(-0.647131 -1.47503 0)
(-0.679196 -1.83592 0)
(-0.595153 -2.00859 0)
(-0.370608 -1.76291 0)
(-0.108939 -0.838642 0)
(-0.0657202 0.549535 0)
(-0.204764 1.13026 0)
(-0.318381 1.34918 0)
(-0.351082 1.36678 0)
(-0.313301 1.28387 0)
(-0.232451 1.15342 0)
(-0.131006 1.00074 0)
(-0.0262597 0.835771 0)
(0.0681084 0.660078 0)
(0.140899 0.470733 0)
(0.182423 0.262214 0)
(0.183983 0.0271113 0)
(0.138182 -0.243743 0)
(0.0405302 -0.560838 0)
(-0.106531 -0.933221 0)
(-0.285264 -1.35827 0)
(-0.449484 -1.79503 0)
(-0.517839 -2.1131 0)
(-0.407846 -2.02721 0)
(-0.144248 -1.08097 0)
(-0.108554 0.712199 0)
(-0.286096 1.28088 0)
(-0.348991 1.39371 0)
(-0.276136 1.31818 0)
(-0.119766 1.17526 0)
(0.0729651 1.01442 0)
(0.272923 0.854071 0)
(0.46131 0.698271 0)
(0.62501 0.544667 0)
(0.753933 0.3882 0)
(0.839122 0.222426 0)
(0.871549 0.0395506 0)
(0.841624 -0.170437 0)
(0.739512 -0.421229 0)
(0.557499 -0.73134 0)
(0.297923 -1.12011 0)
(-0.00895142 -1.58579 0)
(-0.281526 -2.04342 0)
(-0.376092 -2.20086 0)
(-0.167808 -1.37396 0)
(-0.155443 0.978531 0)
(-0.340126 1.40056 0)
(-0.237141 1.30655 0)
(0.0334575 1.11486 0)
(0.355072 0.923866 0)
(0.674886 0.754411 0)
(0.969917 0.608749 0)
(1.22827 0.48198 0)
(1.44313 0.367175 0)
(1.60956 0.25756 0)
(1.72242 0.14678 0)
(1.77508 0.028271 0)
(1.75861 -0.106047 0)
(1.66077 -0.268179 0)
(1.4657 -0.478223 0)
(1.15713 -0.768938 0)
(0.731409 -1.18078 0)
(0.228285 -1.71355 0)
(-0.173245 -2.15976 0)
(-0.118911 -1.67524 0)
(-0.0475571 1.26961 0)
(-0.0720505 1.317 0)
(0.411506 0.969068 0)
(0.958343 0.709639 0)
(1.42972 0.529422 0)
(1.82342 0.398489 0)
(2.14958 0.301198 0)
(2.41454 0.226183 0)
(2.6231 0.164625 0)
(2.77826 0.110143 0)
(2.88051 0.0580262 0)
(2.92739 0.0042946 0)
(2.91319 -0.0552917 0)
(2.82743 -0.127363 0)
(2.65226 -0.224404 0)
(2.3588 -0.37332 0)
(1.90215 -0.630446 0)
(1.22479 -1.07933 0)
(0.45295 -1.68876 0)
(0.217558 -1.70204 0)
(1.43847 0.7073 0)
(1.83595 0.626667 0)
(2.56369 0.398338 0)
(3.13786 0.251708 0)
(3.51232 0.164285 0)
(3.76956 0.109451 0)
(3.95716 0.0740186 0)
(4.09556 0.0502502 0)
(4.19573 0.0331307 0)
(4.26412 0.0195293 0)
(4.30379 0.00749659 0)
(4.31528 -0.00430577 0)
(4.29673 -0.016956 0)
(4.24335 -0.0321775 0)
(4.14536 -0.0531864 0)
(3.98159 -0.0879928 0)
(3.70283 -0.158373 0)
(3.17471 -0.31619 0)
(2.2998 -0.622822 0)
(1.66846 -0.779958 0)
)
;

boundaryField
{
    movingWall
    {
        type            fixedValue;
        value           uniform (5.07466 0 0);
    }
    fixedWalls
    {
        type            noSlip;
    }
    frontAndBack
    {
        type            empty;
    }
}


// ************************************************************************* //
