/*--------------------------------*- C++ -*----------------------------------*\
  =========                 |
  \\      /  F ield         | OpenFOAM: The Open Source CFD Toolbox
   \\    /   O peration     | Website:  https://openfoam.org
    \\  /    A nd           | Version:  9
     \\/     M anipulation  |
\*---------------------------------------------------------------------------*/
FoamFile
{
    format      ascii;
    class       surfaceScalarField;
    location    "0.065";
    object      phi;
}
// * * * * * * * * * * * * * * * * * * * * * * * * * * * * * * * * * * * * * //

dimensions      [0 3 -1 0 0 0 0];

internalField   nonuniform List<scalar> 
66
(
-4.22234e-06
-3.24496e-08
-3.98481e-06
-2.37539e-07
-3.5557e-06
-4.2911e-07
-5.98167e-07
-1.01911e-05
-1.09568e-07
-9.65079e-06
-7.77887e-07
-8.68079e-06
-1.39911e-06
-1.93526e-06
-1.50319e-05
-2.1829e-07
-1.42784e-05
-1.53144e-06
-1.29172e-05
-2.76024e-06
-3.81829e-06
-1.94211e-05
-3.28446e-07
-1.85105e-05
-2.44205e-06
-1.68337e-05
-4.43704e-06
-6.1663e-06
-2.35907e-05
-3.87895e-07
-2.25896e-05
-3.44319e-06
-2.06648e-05
-6.36178e-06
-8.92186e-06
-2.76769e-05
-3.20005e-07
-2.66749e-05
-4.44521e-06
-2.45943e-05
-8.44236e-06
-1.20144e-05
-3.17197e-05
-3.91548e-08
-3.08287e-05
-5.33615e-06
-2.87087e-05
-1.05624e-05
-1.53437e-05
-3.56347e-05
5.16619e-07
-3.49552e-05
-6.01572e-06
-3.29349e-05
-1.25826e-05
-1.87575e-05
-3.9205e-05
1.36371e-06
-3.88066e-05
-6.41413e-06
-3.70199e-05
-1.43694e-05
-2.20749e-05
-4.20978e-05
-4.20439e-05
-4.06125e-05
)
;

boundaryField
{
    movingWall
    {
        type            calculated;
        value           nonuniform List<scalar> 0();
    }
    fixedWalls
    {
        type            calculated;
        value           uniform 0;
    }
    frontAndBack
    {
        type            empty;
        value           nonuniform List<scalar> 0();
    }
    procBoundary5to2
    {
        type            processor;
        value           nonuniform List<scalar> 8(4.25479e-06 1.02683e-05 1.51406e-05 1.95313e-05 2.36502e-05 2.7609e-05 3.14388e-05 3.5079e-05);
    }
    procBoundary5to3
    {
        type            processor;
        value           nonuniform List<scalar> 2(3.83579e-05 4.09826e-05);
    }
    procBoundary5to6
    {
        type            processor;
        value           nonuniform List<scalar> 4(2.47891e-06 -6.46809e-06 -1.58007e-05 -2.51036e-05);
    }
    procBoundary5to7
    {
        type            processor;
        value           nonuniform List<scalar> 6(-2.95752e-06 -7.3437e-06 -1.10342e-05 -1.44857e-05 -1.79093e-05 -2.15018e-05);
    }
    procBoundary5to8
    {
        type            processor;
        value           nonuniform List<scalar> 4(-2.53794e-05 -2.95211e-05 -3.37025e-05 -3.75838e-05);
    }
}


// ************************************************************************* //
