/*--------------------------------*- C++ -*----------------------------------*\
  =========                 |
  \\      /  F ield         | OpenFOAM: The Open Source CFD Toolbox
   \\    /   O peration     | Website:  https://openfoam.org
    \\  /    A nd           | Version:  9
     \\/     M anipulation  |
\*---------------------------------------------------------------------------*/
FoamFile
{
    format      ascii;
    class       surfaceScalarField;
    location    "0.08";
    object      phi;
}
// * * * * * * * * * * * * * * * * * * * * * * * * * * * * * * * * * * * * * //

dimensions      [0 3 -1 0 0 0 0];

internalField   nonuniform List<scalar> 
67
(
4.24475e-08
-4.3299e-08
-4.06162e-08
8.3062e-08
-3.94065e-07
3.53446e-07
-9.18198e-07
5.24132e-07
6.25018e-07
-2.93399e-07
2.50099e-07
-9.94614e-07
7.84273e-07
-2.06515e-06
1.42398e-06
-3.44813e-06
1.90711e-06
2.16789e-06
-5.22949e-07
7.73045e-07
-1.84952e-06
2.11084e-06
-3.69319e-06
3.26765e-06
-5.88028e-06
4.0942e-06
4.50498e-06
-7.49908e-07
1.52295e-06
-2.58754e-06
3.94848e-06
-5.11714e-06
5.79725e-06
-8.03488e-06
7.01194e-06
7.55402e-06
-9.36887e-07
2.45984e-06
-3.23774e-06
6.24933e-06
-6.38538e-06
8.94489e-06
-9.96772e-06
1.05943e-05
1.12516e-05
-1.11152e-06
3.57136e-06
-3.83273e-06
8.97054e-06
-7.54063e-06
1.26528e-05
-1.1729e-05
1.47827e-05
1.55452e-05
-1.27817e-06
4.84953e-06
-4.39036e-06
1.20827e-05
-8.61042e-06
1.68728e-05
-1.33503e-05
1.95226e-05
2.0379e-05
-1.44178e-06
-4.92488e-06
-9.61479e-06
-1.48517e-05
)
;

boundaryField
{
    movingWall
    {
        type            calculated;
        value           nonuniform List<scalar> 0();
    }
    fixedWalls
    {
        type            calculated;
        value           uniform 0;
    }
    frontAndBack
    {
        type            empty;
        value           nonuniform List<scalar> 0();
    }
    procBoundary0to1
    {
        type            processor;
        value           nonuniform List<scalar> 5(6.2913e-06 1.55658e-05 2.15627e-05 2.47595e-05 2.56936e-05);
    }
    procBoundary0to2
    {
        type            processor;
        value           nonuniform List<scalar> 8(-1.54321e-06 -4.991e-06 -8.21737e-06 -1.10839e-05 -1.36653e-05 -1.60226e-05 -1.81841e-05 -2.01663e-05);
    }
}


// ************************************************************************* //
