/*--------------------------------*- C++ -*----------------------------------*\
| =========                 |                                                 |
| \\      /  F ield         | OpenFOAM: The Open Source CFD Toolbox           |
|  \\    /   O peration     | Version:  2212                                  |
|   \\  /    A nd           | Website:  www.openfoam.com                      |
|    \\/     M anipulation  |                                                 |
\*---------------------------------------------------------------------------*/
FoamFile
{
    version     2.0;
    format      ascii;
    arch        "LSB;label=32;scalar=64";
    class       volVectorField;
    location    "0.3";
    object      U;
}
// * * * * * * * * * * * * * * * * * * * * * * * * * * * * * * * * * * * * * //

dimensions      [0 1 -1 0 0 0 0];

internalField   nonuniform List<vector> 
44
(
(0.00605268 0 0)
(0.00517668 0 0)
(0.00417033 0 0)
(0.00305785 0 0)
(0.00186689 0 0)
(0.000627712 0 0)
(0.018313 0 0)
(0.0156641 0 0)
(0.01262 0 0)
(0.00925419 0 0)
(0.0056502 0 0)
(0.00189985 0 0)
(0.0310428 0 0)
(0.0265574 0 0)
(0.0214002 0 0)
(0.015695 0 0)
(0.00958377 0 0)
(0.00322268 0 0)
(0.0445687 0 0)
(0.0381404 0 0)
(0.0307428 0 0)
(0.0225525 0 0)
(0.0137735 0 0)
(0.00463199 0 0)
(0.059239 0 0)
(0.0507173 0 0)
(0.0408975 0 0)
(0.0300127 0 0)
(0.0183347 0 0)
(0.00616675 0 0)
(0.0754337 0 0)
(0.0646227 0 0)
(0.0521418 0 0)
(0.0382841 0 0)
(0.0233965 0 0)
(0.00787086 0 0)
(0.104544 0 0)
(0.0935774 0 0)
(0.080234 0 0)
(0.0647918 0 0)
(0.0476064 0 0)
(0.0291091 0 0)
(0.00979552 0 0)
(0.0120022 0 0)
)
;

boundaryField
{
    movingWall
    {
        type            fixedValue;
        value           nonuniform List<vector> 0();
    }
    fixedWalls
    {
        type            noSlip;
    }
    frontAndBack
    {
        type            empty;
    }
    procBoundary2to1
    {
        type            processor;
        value           nonuniform List<vector> 8((0.00677808 0 0) (0.0205061 0 0) (0.0347543 0 0) (0.0498834 0 0) (0.0662753 0 0) (0.0843424 0 0) (0.0843424 0 0) (0.112937 0 0));
    }
    procBoundary2to5
    {
        type            processor;
        value           nonuniform List<vector> 8((0.127391 0 0) (0.11415 0 0) (0.0979881 0 0) (0.07922 0 0) (0.0582663 0 0) (0.0356536 0 0) (0.0356536 0 0) (0.0145693 0 0));
    }
}


// ************************************************************************* //
