/*--------------------------------*- C++ -*----------------------------------*\
  =========                 |
  \\      /  F ield         | OpenFOAM: The Open Source CFD Toolbox
   \\    /   O peration     | Website:  https://openfoam.org
    \\  /    A nd           | Version:  9
     \\/     M anipulation  |
\*---------------------------------------------------------------------------*/
FoamFile
{
    format      ascii;
    class       volScalarField;
    location    "0.09";
    object      p;
}
// * * * * * * * * * * * * * * * * * * * * * * * * * * * * * * * * * * * * * //

dimensions      [0 2 -2 0 0 0 0];

internalField   nonuniform List<scalar> 
40
(
-0.432189
-0.429943
-0.425352
-0.418171
-0.53262
-0.533346
-0.527747
-0.513551
-0.657032
-0.659852
-0.652964
-0.634879
-0.799732
-0.80896
-0.799843
-0.772225
-0.953958
-0.977831
-0.955633
-0.902546
-1.14309
-1.17722
-1.12627
-1.0096
-1.40363
-1.45724
-1.38397
-1.17698
-1.67615
-1.74647
-1.7004
-1.50845
-1.86804
-1.95533
-1.93771
-1.79791
-1.93153
-2.03257
-2.02772
-1.91005
)
;

boundaryField
{
    movingWall
    {
        type            zeroGradient;
    }
    fixedWalls
    {
        type            zeroGradient;
    }
    frontAndBack
    {
        type            empty;
    }
    procBoundary6to3
    {
        type            processor;
        value           nonuniform List<scalar> 5(-0.419312 -0.51707 -0.635044 -0.767154 -0.899206);
    }
    procBoundary6to4
    {
        type            processor;
        value           nonuniform List<scalar> 5(-1.03112 -1.24775 -1.53487 -1.75066 -1.83001);
    }
    procBoundary6to5
    {
        type            processor;
        value           nonuniform List<scalar> 4(-0.354443 -0.350389 -0.345326 -0.339123);
    }
    procBoundary6to8
    {
        type            processor;
        value           nonuniform List<scalar> 4(-0.409989 -0.506012 -0.622497 -0.741408);
    }
    procBoundary6to9
    {
        type            processor;
        value           nonuniform List<scalar> 6(-0.843781 -0.882824 -0.912743 -1.16549 -1.55611 -1.75731);
    }
}


// ************************************************************************* //
