/*--------------------------------*- C++ -*----------------------------------*\
  =========                 |
  \\      /  F ield         | OpenFOAM: The Open Source CFD Toolbox
   \\    /   O peration     | Website:  https://openfoam.org
    \\  /    A nd           | Version:  8
     \\/     M anipulation  |
\*---------------------------------------------------------------------------*/
FoamFile
{
    version     2.0;
    format      ascii;
    class       volScalarField;
    location    "1";
    object      p;
}
// * * * * * * * * * * * * * * * * * * * * * * * * * * * * * * * * * * * * * //

dimensions      [0 2 -2 0 0 0 0];

internalField   nonuniform List<scalar> 
400
(
-0.099165
-0.198138
-0.251277
-0.27665
-0.280282
-0.268067
-0.243128
-0.206053
-0.159485
-0.106416
-0.0490785
0.0103431
0.069083
0.123999
0.172218
0.211693
0.241428
0.26141
0.27242
0.276082
-0.198526
-0.238994
-0.268518
-0.283665
-0.282649
-0.267795
-0.241454
-0.204319
-0.158576
-0.106582
-0.0501533
0.00868595
0.0671558
0.121982
0.170096
0.20928
0.238462
0.25757
0.266967
0.266615
-0.250215
-0.268421
-0.280225
-0.284625
-0.277296
-0.259948
-0.23388
-0.198785
-0.15621
-0.107934
-0.0551048
0.0008177
0.0572484
0.110684
0.157579
0.195284
0.222616
0.23972
0.247161
0.245409
-0.273219
-0.280717
-0.280721
-0.276526
-0.263901
-0.244774
-0.220028
-0.188533
-0.151206
-0.109212
-0.0627876
-0.0124519
0.039707
0.0900528
0.134486
0.169797
0.194552
0.209017
0.214104
0.210851
-0.278044
-0.279076
-0.271628
-0.261037
-0.244078
-0.22353
-0.200446
-0.173127
-0.142006
-0.107926
-0.0703335
-0.0285747
0.0161824
0.0605552
0.100165
0.131414
0.152636
0.164008
0.166743
0.162272
-0.270358
-0.267652
-0.255744
-0.241064
-0.221128
-0.199753
-0.178654
-0.155766
-0.131016
-0.10545
-0.0783153
-0.0478361
-0.0137728
0.0214366
0.0537108
0.079358
0.0964356
0.104733
0.105704
0.100959
-0.255786
-0.251849
-0.238281
-0.222238
-0.20127
-0.179982
-0.161191
-0.142779
-0.123684
-0.105605
-0.0887295
-0.0708237
-0.0499727
-0.0267919
-0.00412833
0.0147934
0.0277592
0.0337533
0.034172
0.030453
-0.239657
-0.236815
-0.224524
-0.210313
-0.191006
-0.171284
-0.155334
-0.141945
-0.127892
-0.115212
-0.106368
-0.100075
-0.0930573
-0.0833679
-0.0715132
-0.0594618
-0.0496002
-0.0442644
-0.0427969
-0.0445473
-0.224402
-0.224915
-0.216909
-0.208233
-0.194463
-0.179123
-0.167173
-0.160728
-0.15295
-0.144326
-0.140189
-0.142121
-0.146726
-0.149427
-0.147527
-0.140893
-0.13186
-0.124651
-0.120471
-0.120458
-0.208249
-0.213808
-0.212768
-0.213445
-0.210334
-0.204551
-0.198674
-0.202474
-0.205355
-0.202757
-0.201485
-0.207389
-0.218978
-0.2301
-0.234791
-0.230233
-0.21837
-0.205787
-0.197077
-0.196657
-0.185061
-0.196204
-0.204661
-0.218425
-0.23174
-0.244107
-0.248075
-0.265433
-0.285298
-0.294956
-0.29888
-0.306597
-0.320277
-0.334218
-0.340301
-0.333063
-0.313607
-0.290931
-0.274597
-0.274388
-0.145674
-0.162256
-0.184339
-0.216145
-0.250955
-0.293054
-0.314392
-0.347569
-0.388498
-0.417516
-0.432663
-0.443974
-0.457212
-0.469076
-0.471426
-0.457
-0.425219
-0.38643
-0.355915
-0.351885
-0.0812531
-0.104287
-0.148059
-0.207338
-0.26684
-0.34734
-0.398138
-0.450568
-0.511797
-0.562458
-0.593891
-0.612486
-0.625036
-0.63152
-0.626587
-0.602955
-0.556534
-0.495458
-0.438882
-0.418509
0.0129731
-0.0209454
-0.0965331
-0.197934
-0.285974
-0.39856
-0.487238
-0.56727
-0.649406
-0.721159
-0.771495
-0.799211
-0.807179
-0.801154
-0.784083
-0.751674
-0.693282
-0.607513
-0.509969
-0.452627
0.138398
0.0835561
-0.0259645
-0.174963
-0.303435
-0.425911
-0.541556
-0.658012
-0.774246
-0.877776
-0.95726
-0.99964
-0.983471
-0.941226
-0.896402
-0.852043
-0.788145
-0.684702
-0.539489
-0.425602
0.302191
0.209153
0.0778993
-0.0842841
-0.26588
-0.397344
-0.5276
-0.689765
-0.875239
-1.05199
-1.18689
-1.24008
-1.18266
-1.05144
-0.917694
-0.826215
-0.753513
-0.651717
-0.480246
-0.309924
0.52502
0.382568
0.239136
0.116625
-0.0926747
-0.292228
-0.515411
-0.782801
-1.07155
-1.33344
-1.51597
-1.57663
-1.49626
-1.26362
-0.954654
-0.668767
-0.483111
-0.390091
-0.26527
-0.0887998
0.837149
0.689951
0.543347
0.36666
0.0751714
-0.269916
-0.665232
-1.06736
-1.4159
-1.67853
-1.84447
-1.90827
-1.85938
-1.66465
-1.2739
-0.695268
-0.132089
0.200092
0.24754
0.314928
1.45413
1.25513
0.951439
0.481811
-0.106542
-0.645418
-1.08625
-1.4456
-1.73047
-1.94156
-2.08071
-2.14777
-2.13325
-2.00889
-1.71951
-1.17899
-0.310766
0.604438
1.10245
1.19905
2.09936
1.62257
0.829997
-0.00156757
-0.584922
-1.0026
-1.34158
-1.62741
-1.86032
-2.03816
-2.16078
-2.22692
-2.22806
-2.14379
-1.94109
-1.57491
-0.944377
0.126385
1.46129
2.18893
)
;

boundaryField
{
    movingWall
    {
        type            zeroGradient;
    }
    fixedWalls
    {
        type            zeroGradient;
    }
    frontAndBack
    {
        type            empty;
    }
}


// ************************************************************************* //
