/*--------------------------------*- C++ -*----------------------------------*\
  =========                 |
  \\      /  F ield         | OpenFOAM: The Open Source CFD Toolbox
   \\    /   O peration     | Website:  https://openfoam.org
    \\  /    A nd           | Version:  8
     \\/     M anipulation  |
\*---------------------------------------------------------------------------*/
FoamFile
{
    version     2.0;
    format      ascii;
    class       surfaceScalarField;
    location    "1";
    object      phi;
}
// * * * * * * * * * * * * * * * * * * * * * * * * * * * * * * * * * * * * * //

dimensions      [0 3 -1 0 0 0 0];

internalField   nonuniform List<scalar> 
760
(
6.40813e-08
-6.4052e-08
-1.33821e-07
1.97903e-07
-6.01258e-07
4.67441e-07
-1.2495e-06
6.48238e-07
-1.98579e-06
7.36292e-07
-2.7291e-06
7.43307e-07
-3.41053e-06
6.81433e-07
-3.97072e-06
5.60191e-07
-4.358e-06
3.87277e-07
-4.52961e-06
1.71616e-07
-4.45635e-06
-7.32643e-08
-4.12951e-06
-3.26843e-07
-3.56823e-06
-5.61281e-07
-2.82467e-06
-7.43558e-07
-1.98426e-06
-8.40412e-07
-1.15869e-06
-8.25567e-07
-4.7053e-07
-6.88163e-07
-2.98346e-08
-4.40696e-07
1.02174e-07
-1.32006e-07
1.02177e-07
-1.96178e-07
1.32117e-07
-9.6586e-07
9.67593e-07
-2.2562e-06
1.75778e-06
-3.90513e-06
2.29718e-06
-5.72667e-06
2.55783e-06
-7.54212e-06
2.55875e-06
-9.19002e-06
2.32934e-06
-1.05283e-05
1.89844e-06
-1.14357e-05
1.29469e-06
-1.18173e-05
5.53243e-07
-1.16144e-05
-2.76179e-07
-1.08172e-05
-1.124e-06
-9.47782e-06
-1.9007e-06
-7.71724e-06
-2.50414e-06
-5.72328e-06
-2.83437e-06
-3.73363e-06
-2.81523e-06
-2.00221e-06
-2.41959e-06
-7.50026e-07
-1.69289e-06
-1.03257e-07
-7.78784e-07
-1.07707e-09
-5.05995e-07
6.38118e-07
-1.89188e-06
2.35347e-06
-3.96623e-06
3.83214e-06
-6.4887e-06
4.81964e-06
-9.20654e-06
5.27567e-06
-1.18777e-05
5.22989e-06
-1.42808e-05
4.73244e-06
-1.62196e-05
3.83728e-06
-1.75275e-05
2.60257e-06
-1.80756e-05
1.10131e-06
-1.77857e-05
-5.66092e-07
-1.66461e-05
-2.26353e-06
-1.4727e-05
-3.81984e-06
-1.21892e-05
-5.04188e-06
-9.28248e-06
-5.74113e-06
-6.32481e-06
-5.77289e-06
-3.66194e-06
-5.08246e-06
-1.60719e-06
-3.74764e-06
-3.71264e-07
-2.01471e-06
-3.7234e-07
-7.89233e-07
1.42736e-06
-2.76778e-06
4.33202e-06
-5.58621e-06
6.65057e-06
-8.91041e-06
8.14385e-06
-1.24251e-05
8.79035e-06
-1.58405e-05
8.64527e-06
-1.88952e-05
7.78718e-06
-2.1358e-05
6.30005e-06
-2.30315e-05
4.27612e-06
-2.37614e-05
1.8312e-06
-2.345e-05
-8.77464e-07
-2.20744e-05
-3.63917e-06
-1.97045e-05
-6.18978e-06
-1.65172e-05
-8.22916e-06
-1.27994e-05
-9.45894e-06
-8.93174e-06
-9.64054e-06
-5.34779e-06
-8.66641e-06
-2.46869e-06
-6.62673e-06
-6.26081e-07
-3.85732e-06
-9.9842e-07
-1.04156e-06
2.46891e-06
-3.56898e-06
6.85943e-06
-7.08135e-06
1.01629e-05
-1.11478e-05
1.22103e-05
-1.53929e-05
1.30355e-05
-1.94885e-05
1.27409e-05
-2.3146e-05
1.14447e-05
-2.61115e-05
9.26556e-06
-2.81662e-05
6.33086e-06
-2.91331e-05
2.79802e-06
-2.88898e-05
-1.12069e-06
-2.73888e-05
-5.14022e-06
-2.46797e-05
-8.89888e-06
-2.09324e-05
-1.19764e-05
-1.64515e-05
-1.39399e-05
-1.16716e-05
-1.44204e-05
-7.12303e-06
-1.3215e-05
-3.36191e-06
-1.03879e-05
-8.76873e-07
-6.34235e-06
-1.87529e-06
-1.26648e-06
3.73539e-06
-4.29321e-06
9.88617e-06
-8.44196e-06
1.43117e-05
-1.31901e-05
1.69584e-05
-1.81076e-05
1.7953e-05
-2.2836e-05
1.74693e-05
-2.70697e-05
1.56784e-05
-3.05424e-05
1.27382e-05
-3.30205e-05
8.80893e-06
-3.43051e-05
4.08267e-06
-3.42431e-05
-1.18268e-06
-3.27471e-05
-6.63626e-06
-2.98244e-05
-1.18216e-05
-2.5612e-05
-1.61888e-05
-2.04092e-05
-1.91427e-05
-1.46936e-05
-2.0136e-05
-9.10183e-06
-1.88068e-05
-4.35756e-06
-1.51321e-05
-1.15155e-06
-9.54836e-06
-3.02685e-06
-1.46632e-06
5.20171e-06
-4.93975e-06
1.33596e-05
-9.65892e-06
1.90309e-05
-1.5018e-05
2.23175e-05
-2.054e-05
2.3475e-05
-2.58459e-05
2.27751e-05
-3.0624e-05
2.04565e-05
-3.46062e-05
1.67204e-05
-3.7552e-05
1.17548e-05
-3.9244e-05
5.77467e-06
-3.94935e-05
-9.33172e-07
-3.81601e-05
-7.96975e-06
-3.51855e-05
-1.47962e-05
-3.06428e-05
-2.07315e-05
-2.47932e-05
-2.49923e-05
-1.81339e-05
-2.67952e-05
-1.14077e-05
-2.5533e-05
-5.53929e-06
-2.10005e-05
-1.48246e-06
-1.36052e-05
-4.50931e-06
-1.64173e-06
6.84344e-06
-5.50563e-06
1.72235e-05
-1.07177e-05
2.42429e-05
-1.6597e-05
2.81968e-05
-2.26293e-05
2.95073e-05
-2.84267e-05
2.85725e-05
-3.3685e-05
2.57148e-05
-3.81477e-05
2.11831e-05
-4.158e-05
1.51871e-05
-4.3754e-05
7.94862e-06
-4.44473e-05
-2.39835e-07
-4.34583e-05
-8.95871e-06
-4.06424e-05
-1.76121e-05
-3.5973e-05
-2.54008e-05
-2.96269e-05
-3.13384e-05
-2.20757e-05
-3.43464e-05
-1.41466e-05
-3.34621e-05
-6.99067e-06
-2.81565e-05
-1.90361e-06
-1.86923e-05
-6.41291e-06
-1.79352e-06
8.63696e-06
-5.98882e-06
2.14188e-05
-1.16023e-05
2.98564e-05
-1.78827e-05
3.44772e-05
-2.42888e-05
3.59134e-05
-3.04384e-05
3.47221e-05
-3.60521e-05
3.13285e-05
-4.09037e-05
2.60347e-05
-4.47822e-05
1.90656e-05
-4.7466e-05
1.06324e-05
-4.8711e-05
1.00512e-06
-4.82567e-05
-9.41299e-06
-4.58584e-05
-2.00104e-05
-4.13549e-05
-2.99043e-05
-3.4779e-05
-3.79143e-05
-2.65032e-05
-4.26222e-05
-1.73799e-05
-4.25854e-05
-8.786e-06
-3.67504e-05
-2.45063e-06
-2.50276e-05
-8.86354e-06
-1.92694e-06
1.05639e-05
-6.39766e-06
2.58895e-05
-1.23073e-05
3.57661e-05
-1.88333e-05
4.10032e-05
-2.54185e-05
4.24986e-05
-3.17052e-05
4.10089e-05
-3.74611e-05
3.70844e-05
-4.25144e-05
3.1088e-05
-4.67036e-05
2.32548e-05
-4.98396e-05
1.37685e-05
-5.16813e-05
2.84683e-06
-5.19276e-05
-9.16673e-06
-5.0236e-05
-2.1702e-05
-4.62846e-05
-3.38557e-05
-3.98972e-05
-4.43017e-05
-3.12438e-05
-5.12757e-05
-2.10887e-05
-5.27405e-05
-1.098e-05
-4.68591e-05
-3.1622e-06
-3.28454e-05
-1.20257e-05
-2.059e-06
1.26229e-05
-6.766e-06
3.05965e-05
-1.2857e-05
4.1857e-05
-1.94289e-05
4.75751e-05
-2.5924e-05
4.89937e-05
-3.2035e-05
4.71199e-05
-3.76053e-05
4.26547e-05
-4.25476e-05
3.60303e-05
-4.67814e-05
2.74886e-05
-5.01854e-05
1.71725e-05
-5.25597e-05
5.22112e-06
-5.35999e-05
-8.12656e-06
-5.28923e-05
-2.24096e-05
-4.99519e-05
-3.67961e-05
-4.4339e-05
-4.99146e-05
-3.58968e-05
-5.97178e-05
-2.51241e-05
-6.35131e-05
-1.35902e-05
-5.8393e-05
-4.08222e-06
-4.23534e-05
-1.6108e-05
-2.23e-06
1.48529e-05
-7.17424e-06
3.55408e-05
-1.33265e-05
4.80093e-05
-1.96891e-05
5.39377e-05
-2.57309e-05
5.50355e-05
-3.1234e-05
5.26229e-05
-3.61552e-05
4.75759e-05
-4.05264e-05
4.04014e-05
-4.43832e-05
3.13455e-05
-4.77116e-05
2.05009e-05
-5.04004e-05
7.90999e-06
-5.2198e-05
-6.32897e-06
-5.26757e-05
-2.19319e-05
-5.1222e-05
-3.82499e-05
-4.71148e-05
-5.40218e-05
-3.97535e-05
-6.70791e-05
-2.91354e-05
-7.41313e-05
-1.65653e-05
-7.09632e-05
-5.26165e-06
-5.3657e-05
-2.13696e-05
-2.52221e-06
1.73751e-05
-7.77487e-06
4.07934e-05
-1.38574e-05
5.40918e-05
-1.96728e-05
5.97531e-05
-2.47735e-05
6.01362e-05
-2.90932e-05
5.69426e-05
-3.27525e-05
5.12351e-05
-3.59398e-05
4.35888e-05
-3.88392e-05
3.42449e-05
-4.15792e-05
2.32409e-05
-4.41853e-05
1.05161e-05
-4.6524e-05
-3.99027e-06
-4.82356e-05
-2.02203e-05
-4.86682e-05
-3.78173e-05
-4.68658e-05
-5.58242e-05
-4.17207e-05
-7.22242e-05
-3.24747e-05
-8.33773e-05
-1.9727e-05
-8.37109e-05
-6.75691e-06
-6.66271e-05
-2.81265e-05
-3.08982e-06
2.04649e-05
-8.81492e-06
4.65185e-05
-1.46411e-05
5.9918e-05
-1.94204e-05
6.45324e-05
-2.29107e-05
6.36265e-05
-2.52978e-05
5.93297e-05
-2.69295e-05
5.28668e-05
-2.81866e-05
4.48459e-05
-2.9422e-05
3.54803e-05
-3.09257e-05
2.47446e-05
-3.2891e-05
1.24814e-05
-3.536e-05
-1.52127e-06
-3.81377e-05
-1.74426e-05
-4.0666e-05
-3.5289e-05
-4.18945e-05
-5.45956e-05
-4.02638e-05
-7.3855e-05
-3.40762e-05
-8.95648e-05
-2.2667e-05
-9.51201e-05
-8.61227e-06
-8.06818e-05
-3.67388e-05
-4.19999e-06
2.46649e-05
-1.06203e-05
5.29389e-05
-1.57945e-05
6.50922e-05
-1.87422e-05
6.74801e-05
-1.96698e-05
6.45541e-05
-1.91635e-05
5.88235e-05
-1.78679e-05
5.15711e-05
-1.63758e-05
4.33538e-05
-1.52027e-05
3.43072e-05
-1.47867e-05
2.43287e-05
-1.54839e-05
1.31785e-05
-1.75356e-05
5.30509e-07
-2.09874e-05
-1.39909e-05
-2.55296e-05
-3.07468e-05
-3.02515e-05
-4.98737e-05
-3.3379e-05
-7.07275e-05
-3.2299e-05
-9.06448e-05
-2.45509e-05
-0.000102868
-1.07857e-05
-9.4447e-05
-4.75245e-05
-6.24609e-06
3.0911e-05
-1.3404e-05
6.00967e-05
-1.69223e-05
6.86106e-05
-1.66361e-05
6.71939e-05
-1.36263e-05
6.15443e-05
-9.05064e-06
5.42478e-05
-3.88361e-06
4.64041e-05
1.10146e-06
3.83687e-05
5.28516e-06
3.01235e-05
8.14575e-06
2.14681e-05
9.22261e-06
1.21017e-05
8.11007e-06
1.64306e-06
4.50653e-06
-1.03873e-05
-1.64692e-06
-2.45933e-05
-9.86101e-06
-4.16596e-05
-1.85913e-05
-6.19972e-05
-2.4708e-05
-8.45281e-05
-2.37459e-05
-0.00010383
-1.29119e-05
-0.000105281
-6.04365e-05
-9.56028e-06
4.04713e-05
-1.64246e-05
6.69611e-05
-1.58193e-05
6.80053e-05
-9.88781e-06
6.12624e-05
-1.12497e-06
5.27814e-05
8.70384e-06
4.4419e-05
1.84187e-05
3.66893e-05
2.72225e-05
2.95648e-05
3.45387e-05
2.28073e-05
3.98924e-05
1.61145e-05
4.28335e-05
9.16049e-06
4.28941e-05
1.58249e-06
3.95862e-05
-7.07946e-06
3.24656e-05
-1.74727e-05
2.13759e-05
-3.05699e-05
7.05112e-06
-4.76725e-05
-7.76941e-06
-6.97076e-05
-1.72115e-05
-9.43882e-05
-1.37611e-05
-0.000108731
-7.41975e-05
-1.34288e-05
5.39001e-05
-1.50783e-05
6.86106e-05
-5.09536e-06
5.80223e-05
9.81222e-06
4.63548e-05
2.58418e-05
3.67518e-05
4.12097e-05
2.90512e-05
5.50357e-05
2.28632e-05
6.68561e-05
1.77444e-05
7.63823e-05
1.32811e-05
8.33632e-05
9.13355e-06
8.75044e-05
5.01929e-06
8.84139e-05
6.73003e-07
8.55664e-05
-4.23189e-06
7.82557e-05
-1.01621e-05
6.56535e-05
-1.79677e-05
4.71799e-05
-2.91989e-05
2.3789e-05
-4.63167e-05
7.09293e-07
-7.13085e-05
-1.02166e-05
-9.78055e-05
-8.44142e-05
-9.40724e-06
6.33074e-05
8.82331e-06
5.038e-05
3.51809e-05
3.16648e-05
6.00342e-05
2.15015e-05
8.14798e-05
1.53062e-05
9.94469e-05
1.10841e-05
0.000114194
8.11592e-06
0.000126005
5.93325e-06
0.000135085
4.20135e-06
0.000141518
2.70084e-06
0.000145253
1.28439e-06
0.000146083
-1.57403e-07
0.000143618
-1.76683e-06
0.000137156
-3.7001e-06
0.000125526
-6.33766e-06
0.000106879
-1.05514e-05
7.90644e-05
-1.85026e-05
4.22852e-05
-3.45292e-05
6.89548e-06
-6.24158e-05
-7.75187e-05
6.33074e-05
0.000113687
0.000145352
0.000166854
0.00018216
0.000193244
0.00020136
0.000207293
0.000211494
0.000214195
0.00021548
0.000215322
0.000213555
0.000209855
0.000203518
0.000192966
0.000174464
0.000139934
7.75187e-05
)
;

boundaryField
{
    movingWall
    {
        type            calculated;
        value           uniform 0;
    }
    fixedWalls
    {
        type            calculated;
        value           uniform 0;
    }
    frontAndBack
    {
        type            empty;
        value           nonuniform List<scalar> 0();
    }
}


// ************************************************************************* //
