/*--------------------------------*- C++ -*----------------------------------*\
  =========                 |
  \\      /  F ield         | OpenFOAM: The Open Source CFD Toolbox
   \\    /   O peration     | Website:  https://openfoam.org
    \\  /    A nd           | Version:  8
     \\/     M anipulation  |
\*---------------------------------------------------------------------------*/
FoamFile
{
    version     2.0;
    format      ascii;
    class       volVectorField;
    location    "1";
    object      U;
}
// * * * * * * * * * * * * * * * * * * * * * * * * * * * * * * * * * * * * * //

dimensions      [0 1 -1 0 0 0 0];

internalField   nonuniform List<vector> 
400
(
(0.00120478 -0.00120681 0)
(0.000402983 0.000673566 0)
(-0.00644981 0.00286753 0)
(-0.0179664 0.00434037 0)
(-0.0321715 0.00506904 0)
(-0.047293 0.00518522 0)
(-0.0618259 0.00480574 0)
(-0.0744884 0.00400718 0)
(-0.0841669 0.00283725 0)
(-0.0899038 0.00134552 0)
(-0.090957 -0.000383525 0)
(-0.0869207 -0.00220698 0)
(-0.0778781 -0.0039162 0)
(-0.0645353 -0.00525248 0)
(-0.048285 -0.0059457 0)
(-0.0311472 -0.005773 0)
(-0.0155457 -0.00462855 0)
(-0.00390937 -0.00259428 0)
(0.00189162 -8.67443e-05 0)
(0.00157704 0.0015243 0)
(-0.000622495 -0.00051073 0)
(-0.00896171 0.00883991 0)
(-0.0300525 0.0184021 0)
(-0.0603788 0.0249835 0)
(-0.0959714 0.0282365 0)
(-0.133157 0.028467 0)
(-0.168522 0.0260716 0)
(-0.199016 0.0213962 0)
(-0.221985 0.0147494 0)
(-0.235234 0.00649879 0)
(-0.237173 -0.00281641 0)
(-0.227062 -0.0124084 0)
(-0.205279 -0.0212332 0)
(-0.173548 -0.0280745 0)
(-0.135002 -0.0317252 0)
(-0.094011 -0.0312514 0)
(-0.0556648 -0.0263029 0)
(-0.0249188 -0.0174115 0)
(-0.00569974 -0.00641485 0)
(0.000312418 0.0020826 0)
(-0.00307484 0.0064974 0)
(-0.0201029 0.0303291 0)
(-0.0555723 0.0520712 0)
(-0.10298 0.0668957 0)
(-0.156643 0.0739894 0)
(-0.211678 0.0737805 0)
(-0.263457 0.0670281 0)
(-0.307772 0.0545269 0)
(-0.34096 0.037107 0)
(-0.360016 0.0158025 0)
(-0.362804 -0.00794471 0)
(-0.348354 -0.0321509 0)
(-0.317198 -0.0542999 0)
(-0.271629 -0.0715439 0)
(-0.215806 -0.0811139 0)
(-0.155551 -0.0809124 0)
(-0.0976998 -0.0702075 0)
(-0.0490407 -0.0502746 0)
(-0.0155782 -0.0250295 0)
(-0.00167167 -0.00260532 0)
(-0.00527134 0.0195484 0)
(-0.0305653 0.0642292 0)
(-0.079868 0.101416 0)
(-0.143238 0.12594 0)
(-0.21319 0.137005 0)
(-0.283866 0.13536 0)
(-0.349807 0.12224 0)
(-0.406052 0.0989985 0)
(-0.448281 0.0671227 0)
(-0.472922 0.0284889 0)
(-0.477384 -0.0143405 0)
(-0.46038 -0.0579205 0)
(-0.422306 -0.0979425 0)
(-0.365594 -0.129549 0)
(-0.294912 -0.147986 0)
(-0.217071 -0.149568 0)
(-0.140401 -0.132832 0)
(-0.073612 -0.0995938 0)
(-0.0253374 -0.0557501 0)
(-0.00346071 -0.012572 0)
(-0.0071722 0.0379646 0)
(-0.0400171 0.109522 0)
(-0.102236 0.16502 0)
(-0.180463 0.200183 0)
(-0.265408 0.214951 0)
(-0.350362 0.210782 0)
(-0.429265 0.189583 0)
(-0.496681 0.153355 0)
(-0.547859 0.104295 0)
(-0.578795 0.0451532 0)
(-0.586422 -0.020351 0)
(-0.568948 -0.0872435 0)
(-0.526289 -0.149278 0)
(-0.460556 -0.199313 0)
(-0.376469 -0.230167 0)
(-0.281514 -0.235971 0)
(-0.185492 -0.21387 0)
(-0.0994025 -0.165631 0)
(-0.0352292 -0.0987574 0)
(-0.00510968 -0.0275218 0)
(-0.00883518 0.0611526 0)
(-0.0484918 0.165303 0)
(-0.122532 0.24193 0)
(-0.214407 0.288644 0)
(-0.313123 0.306874 0)
(-0.411248 0.299258 0)
(-0.50232 0.26862 0)
(-0.58064 0.217706 0)
(-0.64121 0.149405 0)
(-0.679682 0.0672585 0)
(-0.692464 -0.0239726 0)
(-0.677044 -0.117871 0)
(-0.632479 -0.20623 0)
(-0.560055 -0.279387 0)
(-0.464017 -0.327203 0)
(-0.352143 -0.340778 0)
(-0.235653 -0.31482 0)
(-0.128263 -0.250092 0)
(-0.0462008 -0.155179 0)
(-0.00687252 -0.0476214 0)
(-0.0103005 0.088589 0)
(-0.0560339 0.230567 0)
(-0.140674 0.330962 0)
(-0.244781 0.39011 0)
(-0.355837 0.411658 0)
(-0.465849 0.39993 0)
(-0.568163 0.35895 0)
(-0.657043 0.292291 0)
(-0.727445 0.203462 0)
(-0.774793 0.096602 0)
(-0.794971 -0.0227484 0)
(-0.784569 -0.146985 0)
(-0.741418 -0.266076 0)
(-0.665423 -0.367704 0)
(-0.55968 -0.438203 0)
(-0.431635 -0.464563 0)
(-0.293618 -0.437571 0)
(-0.162353 -0.355484 0)
(-0.0594062 -0.227104 0)
(-0.00904714 -0.0736584 0)
(-0.0115877 0.119778 0)
(-0.0626526 0.304223 0)
(-0.156524 0.430689 0)
(-0.271131 0.502997 0)
(-0.392626 0.527741 0)
(-0.512661 0.511473 0)
(-0.624645 0.459722 0)
(-0.723089 0.376968 0)
(-0.803169 0.26722 0)
(-0.8603 0.134933 0)
(-0.889953 -0.0139792 0)
(-0.887777 -0.171173 0)
(-0.850093 -0.325152 0)
(-0.774859 -0.46102 0)
(-0.663177 -0.561125 0)
(-0.52117 -0.607133 0)
(-0.361479 -0.583928 0)
(-0.203745 -0.484973 0)
(-0.0760736 -0.317659 0)
(-0.0119617 -0.107097 0)
(-0.0127173 0.154231 0)
(-0.0683756 0.385108 0)
(-0.169965 0.539425 0)
(-0.292919 0.625242 0)
(-0.422233 0.652883 0)
(-0.549455 0.631732 0)
(-0.668382 0.569166 0)
(-0.774136 0.470668 0)
(-0.862492 0.340612 0)
(-0.929214 0.183421 0)
(-0.969661 0.00486074 0)
(-0.978707 -0.186637 0)
(-0.951083 -0.378766 0)
(-0.882337 -0.554489 0)
(-0.770625 -0.692037 0)
(-0.619346 -0.766623 0)
(-0.43993 -0.754827 0)
(-0.254084 -0.641936 0)
(-0.097463 -0.430911 0)
(-0.0159984 -0.150104 0)
(-0.0137571 0.1915 0)
(-0.0733935 0.472034 0)
(-0.181123 0.655199 0)
(-0.309784 0.754132 0)
(-0.443339 0.783845 0)
(-0.57355 0.757265 0)
(-0.695025 0.68403 0)
(-0.803968 0.570751 0)
(-0.897248 0.422048 0)
(-0.971507 0.241951 0)
(-1.02252 0.0354821 0)
(-1.04483 -0.189662 0)
(-1.03185 -0.421353 0)
(-0.976528 -0.641362 0)
(-0.873211 -0.824298 0)
(-0.720855 -0.938277 0)
(-0.527285 -0.94903 0)
(-0.314152 -0.829038 0)
(-0.124854 -0.571559 0)
(-0.0216448 -0.205602 0)
(-0.0149025 0.23133 0)
(-0.0782979 0.563981 0)
(-0.190721 0.775788 0)
(-0.321921 0.886155 0)
(-0.454927 0.916068 0)
(-0.582175 0.882898 0)
(-0.699653 0.799025 0)
(-0.805234 0.672359 0)
(-0.897494 0.507677 0)
(-0.974612 0.308303 0)
(-1.03351 0.0779272 0)
(-1.06923 -0.177406 0)
(-1.07451 -0.447027 0)
(-1.04006 -0.713069 0)
(-0.955961 -0.947951 0)
(-0.814985 -1.11309 0)
(-0.618153 -1.16136 0)
(-0.383175 -1.04675 0)
(-0.159497 -0.744337 0)
(-0.0295747 -0.27735 0)
(-0.0166127 0.274 0)
(-0.0844396 0.660465 0)
(-0.20053 0.898836 0)
(-0.330487 1.01684 0)
(-0.456599 1.04334 0)
(-0.572744 1.0013 0)
(-0.677096 0.906349 0)
(-0.769918 0.767871 0)
(-0.852168 0.59075 0)
(-0.924288 0.377373 0)
(-0.985222 0.129624 0)
(-1.03151 -0.148964 0)
(-1.05646 -0.450607 0)
(-1.04956 -0.759904 0)
(-0.996971 -1.04964 0)
(-0.884146 -1.27665 0)
(-0.701745 -1.38055 0)
(-0.45769 -1.29111 0)
(-0.202432 -0.952932 0)
(-0.0407594 -0.370104 0)
(-0.0198512 0.320961 0)
(-0.0944455 0.762111 0)
(-0.213819 1.02191 0)
(-0.337744 1.14043 0)
(-0.448425 1.15735 0)
(-0.542567 1.10253 0)
(-0.621707 0.995326 0)
(-0.689351 0.846601 0)
(-0.749501 0.661277 0)
(-0.8055 0.440668 0)
(-0.859103 0.184595 0)
(-0.909485 -0.106524 0)
(-0.952003 -0.429069 0)
(-0.976759 -0.772449 0)
(-0.96759 -1.11345 0)
(-0.90283 -1.40863 0)
(-0.75993 -1.58706 0)
(-0.529766 -1.55061 0)
(-0.253983 -1.19804 0)
(-0.0565881 -0.489803 0)
(-0.0265035 0.375986 0)
(-0.112901 0.871297 0)
(-0.235469 1.14217 0)
(-0.346282 1.2491 0)
(-0.429442 1.24687 0)
(-0.48701 1.17356 0)
(-0.52556 1.05221 0)
(-0.552779 0.894866 0)
(-0.57621 0.70622 0)
(-0.60243 0.486421 0)
(-0.636441 0.233226 0)
(-0.680875 -0.0561911 0)
(-0.734644 -0.383102 0)
(-0.790802 -0.743737 0)
(-0.833832 -1.12299 0)
(-0.837408 -1.48371 0)
(-0.765255 -1.75155 0)
(-0.584319 -1.8023 0)
(-0.312408 -1.47385 0)
(-0.0788441 -0.643501 0)
(-0.0400038 0.447048 0)
(-0.146902 0.992394 0)
(-0.27064 1.25486 0)
(-0.355524 1.33104 0)
(-0.392791 1.29637 0)
(-0.394143 1.19753 0)
(-0.373298 1.06025 0)
(-0.342877 0.896668 0)
(-0.314005 0.710574 0)
(-0.296217 0.500765 0)
(-0.2975 0.263171 0)
(-0.324033 -0.00782448 0)
(-0.379155 -0.318147 0)
(-0.461091 -0.671703 0)
(-0.558959 -1.06494 0)
(-0.646996 -1.4747 0)
(-0.679034 -1.83547 0)
(-0.594991 -2.00805 0)
(-0.370494 -1.7624 0)
(-0.108903 -0.838392 0)
(-0.0657107 0.549446 0)
(-0.204736 1.13007 0)
(-0.318338 1.34894 0)
(-0.351034 1.36652 0)
(-0.31326 1.28361 0)
(-0.232423 1.15317 0)
(-0.130997 1.0005 0)
(-0.0262721 0.835548 0)
(0.0680742 0.659877 0)
(0.140844 0.470562 0)
(0.182353 0.262081 0)
(0.183904 0.027029 0)
(0.138105 -0.243762 0)
(0.040468 -0.560778 0)
(-0.106562 -0.933063 0)
(-0.285246 -1.35799 0)
(-0.449409 -1.79461 0)
(-0.517722 -2.11255 0)
(-0.407733 -2.02664 0)
(-0.144203 -1.08065 0)
(-0.108534 0.712084 0)
(-0.286045 1.28066 0)
(-0.348925 1.39347 0)
(-0.276077 1.31793 0)
(-0.119731 1.17502 0)
(0.0729665 1.01419 0)
(0.272885 0.853859 0)
(0.461231 0.698077 0)
(0.62489 0.544496 0)
(0.753774 0.388056 0)
(0.838931 0.222314 0)
(0.871333 0.0394788 0)
(0.841397 -0.17046 0)
(0.73929 -0.421191 0)
(0.557305 -0.731225 0)
(0.297782 -1.1199 0)
(-0.00901357 -1.58544 0)
(-0.2815 -2.04292 0)
(-0.37601 -2.20026 0)
(-0.167764 -1.37356 0)
(-0.155407 0.978363 0)
(-0.340046 1.40032 0)
(-0.237064 1.30631 0)
(0.0334947 1.11465 0)
(0.355054 0.923668 0)
(0.674806 0.754232 0)
(0.969774 0.60859 0)
(1.22806 0.48184 0)
(1.44286 0.367054 0)
(1.60924 0.25746 0)
(1.72206 0.146704 0)
(1.77468 0.0282232 0)
(1.75819 -0.106062 0)
(1.66035 -0.268155 0)
(1.4653 -0.47815 0)
(1.15679 -0.768798 0)
(0.731155 -1.18054 0)
(0.228158 -1.71316 0)
(-0.173244 -2.15921 0)
(-0.118895 -1.67477 0)
(-0.0475241 1.26937 0)
(-0.0719945 1.31674 0)
(0.411481 0.968879 0)
(0.958218 0.70949 0)
(1.42951 0.529299 0)
(1.82311 0.398387 0)
(2.14919 0.301113 0)
(2.41409 0.226112 0)
(2.62258 0.164567 0)
(2.77768 0.110097 0)
(2.87989 0.0579937 0)
(2.92674 0.0042768 0)
(2.91253 -0.0552935 0)
(2.82676 -0.127346 0)
(2.65162 -0.224366 0)
(2.3582 -0.373252 0)
(1.90163 -0.630326 0)
(1.22442 -1.0791 0)
(0.452778 -1.68836 0)
(0.217471 -1.70161 0)
(1.43816 0.707148 0)
(1.83558 0.626532 0)
(2.56318 0.398247 0)
(3.13723 0.251646 0)
(3.5116 0.164241 0)
(3.76878 0.109418 0)
(3.95633 0.0739941 0)
(4.09468 0.0502318 0)
(4.19482 0.0331171 0)
(4.26317 0.0195198 0)
(4.30283 0.00749091 0)
(4.31431 -0.00430729 0)
(4.29575 -0.0169536 0)
(4.24238 -0.0321707 0)
(4.14441 -0.0531747 0)
(3.98068 -0.0879752 0)
(3.70197 -0.158345 0)
(3.17394 -0.316133 0)
(2.29923 -0.622692 0)
(1.66805 -0.779779 0)
)
;

boundaryField
{
    movingWall
    {
        type            fixedValue;
        value           uniform (5.07351 0 0);
    }
    fixedWalls
    {
        type            noSlip;
    }
    frontAndBack
    {
        type            empty;
    }
}


// ************************************************************************* //
