/*--------------------------------*- C++ -*----------------------------------*\
| =========                 |                                                 |
| \\      /  F ield         | OpenFOAM: The Open Source CFD Toolbox           |
|  \\    /   O peration     | Version:  2212                                  |
|   \\  /    A nd           | Website:  www.openfoam.com                      |
|    \\/     M anipulation  |                                                 |
\*---------------------------------------------------------------------------*/
FoamFile
{
    version     2.0;
    format      ascii;
    arch        "LSB;label=32;scalar=64";
    class       volVectorField;
    location    "0.1";
    object      U;
}
// * * * * * * * * * * * * * * * * * * * * * * * * * * * * * * * * * * * * * //

dimensions      [0 1 -1 0 0 0 0];

internalField   nonuniform List<vector> 
44
(
(0.0853941 0 0)
(0.0766941 0 0)
(0.0659952 0 0)
(0.0534791 0 0)
(0.0394125 0 0)
(0.024152 0 0)
(0.108335 0 0)
(0.0974667 0 0)
(0.0840288 0 0)
(0.0682203 0 0)
(0.0503597 0 0)
(0.0308991 0 0)
(0.0104168 0 0)
(0.136117 0 0)
(0.122739 0 0)
(0.106082 0 0)
(0.086341 0 0)
(0.0638793 0 0)
(0.0392609 0 0)
(0.0132481 0 0)
(0.169591 0 0)
(0.153376 0 0)
(0.133001 0 0)
(0.108616 0 0)
(0.0806056 0 0)
(0.0496581 0 0)
(0.0167782 0 0)
(0.209686 0 0)
(0.19037 0 0)
(0.165806 0 0)
(0.136024 0 0)
(0.101375 0 0)
(0.0626624 0 0)
(0.0212116 0 0)
(0.257405 0 0)
(0.234861 0 0)
(0.205751 0 0)
(0.169848 0 0)
(0.127341 0 0)
(0.0790967 0 0)
(0.0268499 0 0)
(0.160175 0 0)
(0.100222 0 0)
(0.0341729 0 0)
)
;

boundaryField
{
    movingWall
    {
        type            fixedValue;
        value           nonuniform List<vector> 0();
    }
    fixedWalls
    {
        type            noSlip;
    }
    frontAndBack
    {
        type            empty;
    }
    procBoundary5to2
    {
        type            processor;
        value           nonuniform List<vector> 8((0.066524 0 0) (0.0596679 0 0) (0.0512707 0 0) (0.0414887 0 0) (0.0305382 0 0) (0.0186968 0 0) (0.00813664 0 0) (0.00813664 0 0));
    }
    procBoundary5to4
    {
        type            processor;
        value           nonuniform List<vector> 6((0.0919893 0 0) (0.116533 0 0) (0.146144 0 0) (0.181647 0 0) (0.223907 0 0) (0.273794 0 0));
    }
    procBoundary5to8
    {
        type            processor;
        value           nonuniform List<vector> 8((0.313802 0 0) (0.288167 0 0) (0.254407 0 0) (0.211819 0 0) (0.211819 0 0) (0.20241 0 0) (0.128108 0 0) (0.0440163 0 0));
    }
}


// ************************************************************************* //
