/*--------------------------------*- C++ -*----------------------------------*\
  =========                 |
  \\      /  F ield         | OpenFOAM: The Open Source CFD Toolbox
   \\    /   O peration     | Website:  https://openfoam.org
    \\  /    A nd           | Version:  9
     \\/     M anipulation  |
\*---------------------------------------------------------------------------*/
FoamFile
{
    format      ascii;
    class       volVectorField;
    location    "0.085";
    object      U;
}
// * * * * * * * * * * * * * * * * * * * * * * * * * * * * * * * * * * * * * //

dimensions      [0 1 -1 0 0 0 0];

internalField   nonuniform List<vector> 
40
(
(-0.0527405 -0.00601235 0)
(-0.0366942 -0.00623776 0)
(-0.0209988 -0.00553331 0)
(-0.00804876 -0.00384787 0)
(-8.90546e-05 -0.00138336 0)
(0.00108355 0.00110889 0)
(-0.135781 -0.0286886 0)
(-0.0997163 -0.0299023 0)
(-0.0639153 -0.0271545 0)
(-0.0328811 -0.0204237 0)
(-0.0106474 -0.0105207 0)
(-0.00147247 0.00030857 0)
(-0.208304 -0.0706385 0)
(-0.156885 -0.0741426 0)
(-0.104911 -0.0687026 0)
(-0.0581785 -0.0545316 0)
(-0.022231 -0.0333191 0)
(-0.00434359 -0.00767563 0)
(-0.277409 -0.126374 0)
(-0.211994 -0.13374 0)
(-0.14467 -0.126047 0)
(-0.0824917 -0.103345 0)
(-0.0329016 -0.0681204 0)
(-0.00678511 -0.0217607 0)
(-0.346829 -0.194258 0)
(-0.267977 -0.207633 0)
(-0.185096 -0.19841 0)
(-0.107033 -0.166641 0)
(-0.0433914 -0.114651 0)
(-0.00907276 -0.0414228 0)
(-0.419722 -0.273612 0)
(-0.32782 -0.29573 0)
(-0.229132 -0.286861 0)
(-0.133826 -0.245204 0)
(-0.0547548 -0.173485 0)
(-0.0114887 -0.066683 0)
(-0.279333 -0.392173 0)
(-0.165277 -0.34097 0)
(-0.0683402 -0.246128 0)
(-0.0144127 -0.0981633 0)
)
;

boundaryField
{
    movingWall
    {
        type            fixedValue;
        value           nonuniform List<vector> 0();
    }
    fixedWalls
    {
        type            noSlip;
    }
    frontAndBack
    {
        type            empty;
    }
    procBoundary7to5
    {
        type            processor;
        value           nonuniform List<vector> 6((-0.0671815 -0.0050702 0) (-0.168131 -0.0242723 0) (-0.254125 -0.0597887 0) (-0.334936 -0.106483 0) (-0.414763 -0.162377 0) (-0.496931 -0.226338 0));
    }
    procBoundary7to8
    {
        type            processor;
        value           nonuniform List<vector> 7((-0.498369 -0.363786 0) (-0.394555 -0.398591 0) (-0.394555 -0.398591 0) (-0.337333 -0.515845 0) (-0.20288 -0.456317 0) (-0.0853486 -0.335685 0) (-0.0182001 -0.137488 0));
    }
}


// ************************************************************************* //
