/*--------------------------------*- C++ -*----------------------------------*\
  =========                 |
  \\      /  F ield         | OpenFOAM: The Open Source CFD Toolbox
   \\    /   O peration     | Website:  https://openfoam.org
    \\  /    A nd           | Version:  8
     \\/     M anipulation  |
\*---------------------------------------------------------------------------*/
FoamFile
{
    version     2.0;
    format      ascii;
    class       volScalarField;
    location    "1";
    object      p;
}
// * * * * * * * * * * * * * * * * * * * * * * * * * * * * * * * * * * * * * //

dimensions      [0 2 -2 0 0 0 0];

internalField   nonuniform List<scalar> 
400
(
-0.0992277
-0.198264
-0.251437
-0.276831
-0.280471
-0.268256
-0.243312
-0.206225
-0.159642
-0.106554
-0.0491971
0.0102454
0.0690061
0.123941
0.172177
0.211664
0.241409
0.261398
0.27241
0.276073
-0.198651
-0.239145
-0.26869
-0.28385
-0.282839
-0.267984
-0.241637
-0.204491
-0.158733
-0.10672
-0.0502725
0.0085876
0.0670782
0.121923
0.170054
0.209251
0.238442
0.257555
0.266954
0.266601
-0.250374
-0.268592
-0.280404
-0.284812
-0.277484
-0.260133
-0.234058
-0.198954
-0.156365
-0.108073
-0.0552257
0.000716582
0.0571674
0.110622
0.157533
0.195249
0.222589
0.239696
0.247137
0.245382
-0.273394
-0.280897
-0.280903
-0.276709
-0.264083
-0.244951
-0.220199
-0.188695
-0.151359
-0.109352
-0.0629115
-0.0125582
0.0396192
0.0899825
0.13443
0.169751
0.19451
0.208975
0.21406
0.210802
-0.278226
-0.279258
-0.271808
-0.261213
-0.24425
-0.223697
-0.200607
-0.173282
-0.142154
-0.108065
-0.0704611
-0.0286883
0.0160842
0.0604715
0.100092
0.131348
0.152571
0.16394
0.166669
0.162192
-0.270538
-0.267831
-0.255918
-0.241233
-0.22129
-0.199909
-0.178806
-0.155914
-0.13116
-0.10559
-0.0784488
-0.0479608
-0.0138872
0.0213321
0.0536131
0.0792623
0.0963367
0.104627
0.10559
0.100839
-0.25596
-0.252022
-0.238449
-0.222398
-0.201423
-0.18013
-0.161336
-0.142923
-0.123828
-0.105749
-0.0888729
-0.0709648
-0.0501102
-0.0269259
-0.00426132
0.0146576
0.0276163
0.0336005
0.034009
0.0302828
-0.239824
-0.236982
-0.224685
-0.21047
-0.191157
-0.17143
-0.15548
-0.142094
-0.128044
-0.115369
-0.106528
-0.10024
-0.0932269
-0.0835418
-0.0716924
-0.0596484
-0.0497965
-0.0444721
-0.0430153
-0.0447725
-0.224559
-0.225074
-0.217067
-0.20839
-0.194618
-0.179278
-0.167331
-0.160894
-0.153124
-0.144508
-0.140381
-0.142323
-0.146941
-0.149654
-0.147766
-0.141142
-0.132119
-0.12492
-0.120749
-0.120743
-0.208392
-0.213956
-0.212922
-0.213605
-0.210501
-0.204725
-0.198858
-0.202672
-0.205568
-0.202983
-0.201726
-0.207647
-0.219256
-0.230398
-0.235106
-0.230559
-0.218703
-0.206124
-0.197419
-0.197006
-0.185183
-0.196335
-0.204805
-0.218587
-0.231922
-0.244309
-0.248295
-0.265678
-0.28557
-0.295251
-0.299197
-0.306937
-0.320644
-0.334612
-0.340715
-0.333488
-0.314031
-0.291349
-0.275011
-0.27481
-0.145759
-0.162356
-0.184464
-0.216302
-0.251148
-0.293288
-0.31466
-0.347875
-0.388847
-0.417902
-0.433082
-0.444426
-0.457699
-0.469595
-0.471968
-0.45755
-0.425758
-0.386946
-0.356412
-0.352383
-0.0812826
-0.104337
-0.148149
-0.207481
-0.26704
-0.347607
-0.398461
-0.450947
-0.512237
-0.562954
-0.594435
-0.613076
-0.625669
-0.632191
-0.627282
-0.603654
-0.557211
-0.496091
-0.439468
-0.41908
0.0130244
-0.0209226
-0.0965711
-0.198053
-0.286174
-0.398853
-0.487613
-0.567724
-0.64994
-0.72177
-0.772177
-0.799957
-0.807976
-0.801986
-0.784932
-0.752522
-0.694101
-0.608268
-0.510639
-0.453244
0.138559
0.0836748
-0.02593
-0.175043
-0.303625
-0.426209
-0.541957
-0.658516
-0.774855
-0.878491
-0.958077
-1.00055
-0.984436
-0.942195
-0.897361
-0.852986
-0.789057
-0.685543
-0.540209
-0.426214
0.302495
0.209391
0.0780329
-0.0842824
-0.266021
-0.397605
-0.527977
-0.690275
-0.875903
-1.05282
-1.18788
-1.2412
-1.18382
-1.05254
-0.918683
-0.827129
-0.754388
-0.652535
-0.480936
-0.310458
0.52551
0.382959
0.239407
0.116775
-0.0926863
-0.29239
-0.515745
-0.783345
-1.07234
-1.33448
-1.51724
-1.57805
-1.49771
-1.26493
-0.955712
-0.669557
-0.483731
-0.390665
-0.265778
-0.089159
0.837875
0.690569
0.543847
0.367023
0.0753151
-0.270024
-0.665635
-1.06809
-1.41695
-1.67986
-1.84603
-1.90997
-1.86112
-1.6663
-1.27526
-0.696134
-0.13243
0.200059
0.247521
0.314941
1.45533
1.25617
0.952242
0.482295
-0.106474
-0.64577
-1.08697
-1.44665
-1.73181
-1.94314
-2.08249
-2.14968
-2.13522
-2.01081
-1.72122
-1.18027
-0.31132
0.604731
1.10321
1.19987
2.10105
1.6239
0.83076
-0.00141841
-0.585224
-1.00325
-1.34253
-1.62863
-1.86179
-2.03984
-2.16264
-2.2289
-2.2301
-2.1458
-1.94296
-1.57649
-0.945436
0.126235
1.46232
2.19062
)
;

boundaryField
{
    movingWall
    {
        type            zeroGradient;
    }
    fixedWalls
    {
        type            zeroGradient;
    }
    frontAndBack
    {
        type            empty;
    }
}


// ************************************************************************* //
