/*--------------------------------*- C++ -*----------------------------------*\
  =========                 |
  \\      /  F ield         | OpenFOAM: The Open Source CFD Toolbox
   \\    /   O peration     | Website:  https://openfoam.org
    \\  /    A nd           | Version:  8
     \\/     M anipulation  |
\*---------------------------------------------------------------------------*/
FoamFile
{
    version     2.0;
    format      ascii;
    class       surfaceScalarField;
    location    "1";
    object      phi;
}
// * * * * * * * * * * * * * * * * * * * * * * * * * * * * * * * * * * * * * //

dimensions      [0 3 -1 0 0 0 0];

internalField   nonuniform List<scalar> 
760
(
6.40118e-08
-6.41766e-08
-1.33935e-07
1.97947e-07
-6.01565e-07
4.67634e-07
-1.25009e-06
6.48519e-07
-1.9867e-06
7.36615e-07
-2.73034e-06
7.43639e-07
-3.41209e-06
6.81747e-07
-3.97255e-06
5.60462e-07
-4.36003e-06
3.87476e-07
-4.53174e-06
1.71717e-07
-4.45846e-06
-7.32834e-08
-4.13146e-06
-3.26994e-07
-3.5699e-06
-5.61558e-07
-2.82597e-06
-7.43934e-07
-1.98513e-06
-8.40836e-07
-1.15916e-06
-8.25973e-07
-4.70679e-07
-6.88483e-07
-2.9802e-08
-4.40877e-07
1.02236e-07
-1.32035e-07
1.0224e-07
-1.96329e-07
1.32143e-07
-9.6638e-07
9.68006e-07
-2.2573e-06
1.75856e-06
-3.90698e-06
2.2982e-06
-5.72934e-06
2.55898e-06
-7.54561e-06
2.55991e-06
-9.19428e-06
2.33042e-06
-1.05332e-05
1.89935e-06
-1.1441e-05
1.29535e-06
-1.18229e-05
5.53561e-07
-1.16199e-05
-2.76268e-07
-1.08224e-05
-1.12452e-06
-9.48229e-06
-1.90164e-06
-7.72083e-06
-2.5054e-06
-5.72588e-06
-2.83579e-06
-3.73525e-06
-2.81661e-06
-2.00301e-06
-2.42073e-06
-7.50279e-07
-1.69362e-06
-1.03267e-07
-7.79057e-07
-1.02317e-09
-5.0627e-07
6.38419e-07
-1.89283e-06
2.35456e-06
-3.96816e-06
3.83389e-06
-6.49178e-06
4.82182e-06
-9.21086e-06
5.27806e-06
-1.18832e-05
5.23227e-06
-1.42875e-05
4.73465e-06
-1.62272e-05
3.83913e-06
-1.75358e-05
2.6039e-06
-1.80842e-05
1.10194e-06
-1.77942e-05
-5.66277e-07
-1.66541e-05
-2.26459e-06
-1.4734e-05
-3.82171e-06
-1.2195e-05
-5.0444e-06
-9.28679e-06
-5.74401e-06
-6.32766e-06
-5.77573e-06
-3.66351e-06
-5.08487e-06
-1.60782e-06
-3.74931e-06
-3.71386e-07
-2.01549e-06
-3.72407e-07
-7.89637e-07
1.42806e-06
-2.76914e-06
4.33407e-06
-5.58889e-06
6.65364e-06
-8.91463e-06
8.14756e-06
-1.24309e-05
8.79435e-06
-1.58479e-05
8.64924e-06
-1.89041e-05
7.79083e-06
-2.1368e-05
6.30311e-06
-2.30424e-05
4.2783e-06
-2.37728e-05
1.83226e-06
-2.34613e-05
-8.7772e-07
-2.20851e-05
-3.64083e-06
-1.9714e-05
-6.19279e-06
-1.65251e-05
-8.23326e-06
-1.28055e-05
-9.46368e-06
-8.9359e-06
-9.64532e-06
-5.35019e-06
-8.67058e-06
-2.46973e-06
-6.62976e-06
-6.26316e-07
-3.85891e-06
-9.98723e-07
-1.04208e-06
2.47014e-06
-3.57071e-06
6.86269e-06
-7.08472e-06
1.01676e-05
-1.1153e-05
1.22158e-05
-1.54001e-05
1.30414e-05
-1.94976e-05
1.27468e-05
-2.31568e-05
1.14501e-05
-2.61238e-05
9.2701e-06
-2.81796e-05
6.33415e-06
-2.91471e-05
2.7997e-06
-2.89039e-05
-1.12091e-06
-2.74022e-05
-5.14249e-06
-2.46919e-05
-8.90314e-06
-2.09428e-05
-1.19824e-05
-1.64596e-05
-1.39469e-05
-1.16773e-05
-1.44276e-05
-7.12638e-06
-1.32215e-05
-3.36341e-06
-1.03927e-05
-8.77229e-07
-6.34508e-06
-1.87595e-06
-1.2671e-06
3.73724e-06
-4.29526e-06
9.89085e-06
-8.44591e-06
1.43183e-05
-1.31962e-05
1.69662e-05
-1.8116e-05
1.79612e-05
-2.28466e-05
1.74773e-05
-2.70823e-05
1.56858e-05
-3.05567e-05
1.27445e-05
-3.30362e-05
8.8136e-06
-3.43217e-05
4.08521e-06
-3.42599e-05
-1.18267e-06
-3.27634e-05
-6.63902e-06
-2.98395e-05
-1.18271e-05
-2.56251e-05
-1.61968e-05
-2.04196e-05
-1.91523e-05
-1.4701e-05
-2.01461e-05
-9.10633e-06
-1.88162e-05
-4.35963e-06
-1.51394e-05
-1.15205e-06
-9.55266e-06
-3.02801e-06
-1.46702e-06
5.20426e-06
-4.94204e-06
1.33659e-05
-9.66331e-06
1.90396e-05
-1.50247e-05
2.23276e-05
-2.05492e-05
2.34856e-05
-2.58576e-05
2.27857e-05
-3.0638e-05
2.04663e-05
-3.46223e-05
1.67288e-05
-3.75698e-05
1.17612e-05
-3.9263e-05
5.77842e-06
-3.95131e-05
-9.32615e-07
-3.81793e-05
-7.97277e-06
-3.52036e-05
-1.48029e-05
-3.06588e-05
-2.07415e-05
-2.48063e-05
-2.50049e-05
-1.81435e-05
-2.68089e-05
-1.14136e-05
-2.5546e-05
-5.54209e-06
-2.1011e-05
-1.48316e-06
-1.36116e-05
-4.51116e-06
-1.64248e-06
6.84674e-06
-5.50806e-06
1.72315e-05
-1.07224e-05
2.42539e-05
-1.66042e-05
2.82094e-05
-2.26392e-05
2.95206e-05
-2.84392e-05
2.85857e-05
-3.37001e-05
2.57271e-05
-3.81651e-05
2.11939e-05
-4.15995e-05
1.51955e-05
-4.3775e-05
7.95396e-06
-4.44693e-05
-2.38323e-07
-4.34805e-05
-8.9616e-06
-4.06636e-05
-1.76197e-05
-3.59922e-05
-2.54129e-05
-2.9643e-05
-3.13541e-05
-2.20879e-05
-3.43641e-05
-1.41544e-05
-3.34795e-05
-6.99441e-06
-2.81709e-05
-1.90457e-06
-1.87014e-05
-6.41573e-06
-1.79428e-06
8.64103e-06
-5.9913e-06
2.14285e-05
-1.1607e-05
2.98696e-05
-1.789e-05
3.44924e-05
-2.42988e-05
3.59294e-05
-3.04512e-05
3.47381e-05
-3.60676e-05
3.13435e-05
-4.09218e-05
2.60481e-05
-4.48027e-05
1.90764e-05
-4.74885e-05
1.06398e-05
-4.87349e-05
1.00807e-06
-4.82812e-05
-9.41524e-06
-4.58826e-05
-2.00184e-05
-4.13774e-05
-2.99181e-05
-3.47984e-05
-3.79331e-05
-2.65183e-05
-4.26442e-05
-1.73898e-05
-4.26079e-05
-8.79097e-06
-3.67698e-05
-2.45196e-06
-2.50404e-05
-8.86769e-06
-1.92768e-06
1.05687e-05
-6.40006e-06
2.59009e-05
-1.23119e-05
3.57815e-05
-1.88404e-05
4.10209e-05
-2.54283e-05
4.25172e-05
-3.17177e-05
4.10275e-05
-3.74764e-05
3.71022e-05
-4.25324e-05
3.11041e-05
-4.67242e-05
2.32682e-05
-4.98626e-05
1.37782e-05
-5.17062e-05
2.85168e-06
-5.19537e-05
-9.16776e-06
-5.02623e-05
-2.17097e-05
-4.63098e-05
-3.38706e-05
-3.99197e-05
-4.43232e-05
-3.12619e-05
-5.13021e-05
-2.11012e-05
-5.27687e-05
-1.09865e-05
-4.68845e-05
-3.16402e-06
-3.28629e-05
-1.20317e-05
-2.05969e-06
1.26284e-05
-6.76823e-06
3.06094e-05
-1.28613e-05
4.18745e-05
-1.94355e-05
4.75951e-05
-2.59331e-05
4.90148e-05
-3.20466e-05
4.71411e-05
-3.76196e-05
4.26751e-05
-4.25644e-05
3.6049e-05
-4.68009e-05
2.75046e-05
-5.02075e-05
1.71847e-05
-5.25841e-05
5.22825e-06
-5.3626e-05
-8.12579e-06
-5.29194e-05
-2.24164e-05
-4.99788e-05
-3.68112e-05
-4.43639e-05
-4.9938e-05
-3.59178e-05
-5.97482e-05
-2.51393e-05
-6.35472e-05
-1.35985e-05
-5.84252e-05
-4.08469e-06
-4.23767e-05
-1.61164e-05
-2.23061e-06
1.4859e-05
-7.17625e-06
3.55551e-05
-1.33303e-05
4.80286e-05
-1.96949e-05
5.39598e-05
-2.57389e-05
5.50588e-05
-3.12441e-05
5.26463e-05
-3.61676e-05
4.75985e-05
-4.05411e-05
4.04225e-05
-4.44003e-05
3.13639e-05
-4.77311e-05
2.05155e-05
-5.04224e-05
7.91953e-06
-5.22222e-05
-6.32598e-06
-5.27017e-05
-2.19369e-05
-5.12487e-05
-3.82642e-05
-4.71407e-05
-5.40459e-05
-3.97766e-05
-6.71124e-05
-2.91531e-05
-7.41707e-05
-1.65756e-05
-7.10027e-05
-5.26497e-06
-5.36873e-05
-2.13814e-05
-2.52278e-06
1.73818e-05
-7.77669e-06
4.0809e-05
-1.38608e-05
5.41127e-05
-1.96779e-05
5.97768e-05
-2.47802e-05
6.01611e-05
-2.91015e-05
5.69677e-05
-3.27623e-05
5.12594e-05
-3.59514e-05
4.36115e-05
-3.88526e-05
3.42651e-05
-4.15946e-05
2.32575e-05
-4.42029e-05
1.05278e-05
-4.65439e-05
-3.985e-06
-4.82577e-05
-2.02231e-05
-4.86922e-05
-3.78298e-05
-4.68905e-05
-5.58476e-05
-4.17441e-05
-7.22588e-05
-3.2494e-05
-8.34208e-05
-1.97393e-05
-8.37574e-05
-6.76127e-06
-6.66654e-05
-2.81426e-05
-3.09045e-06
2.04722e-05
-8.81678e-06
4.65353e-05
-1.46443e-05
5.99402e-05
-1.94248e-05
6.45573e-05
-2.2916e-05
6.36524e-05
-2.5304e-05
5.93556e-05
-2.69364e-05
5.28918e-05
-2.81943e-05
4.48694e-05
-2.94305e-05
3.55014e-05
-3.09354e-05
2.47624e-05
-3.29022e-05
1.24946e-05
-3.53731e-05
-1.51411e-06
-3.81531e-05
-1.74431e-05
-4.06839e-05
-3.5299e-05
-4.19147e-05
-5.46168e-05
-4.02849e-05
-7.38886e-05
-3.40956e-05
-8.961e-05
-2.26809e-05
-9.51721e-05
-8.61785e-06
-8.07284e-05
-3.67605e-05
-4.20094e-06
2.46732e-05
-1.06227e-05
5.29571e-05
-1.5798e-05
6.51155e-05
-1.87464e-05
6.75056e-05
-1.96741e-05
6.45801e-05
-1.91676e-05
5.88491e-05
-1.78716e-05
5.15958e-05
-1.63789e-05
4.33768e-05
-1.52055e-05
3.43279e-05
-1.47893e-05
2.43463e-05
-1.54868e-05
1.3192e-05
-1.75395e-05
5.3865e-07
-2.09931e-05
-1.39896e-05
-2.55381e-05
-3.0754e-05
-3.02635e-05
-4.98915e-05
-3.33943e-05
-7.07577e-05
-3.23157e-05
-9.06886e-05
-2.4565e-05
-0.000102923
-1.07925e-05
-9.45009e-05
-4.7553e-05
-6.24784e-06
3.0921e-05
-1.34077e-05
6.0117e-05
-1.69271e-05
6.86349e-05
-1.66407e-05
6.72192e-05
-1.36299e-05
6.15693e-05
-9.05261e-06
5.42719e-05
-3.88359e-06
4.64267e-05
1.10363e-06
3.83896e-05
5.28943e-06
3.01421e-05
8.15181e-06
2.14839e-05
9.22992e-06
1.21139e-05
8.11775e-06
1.65083e-06
4.51337e-06
-1.03852e-05
-1.64247e-06
-2.45981e-05
-9.86063e-06
-4.16733e-05
-1.85963e-05
-6.20221e-05
-2.47182e-05
-8.45667e-05
-2.3758e-05
-0.000103883
-1.29195e-05
-0.000105339
-6.04725e-05
-9.56368e-06
4.04847e-05
-1.64308e-05
6.69841e-05
-1.58258e-05
6.80298e-05
-9.89263e-06
6.12861e-05
-1.12691e-06
5.28036e-05
8.70552e-06
4.44394e-05
1.84244e-05
3.67079e-05
2.72324e-05
2.95815e-05
3.45525e-05
2.2822e-05
3.99098e-05
1.61267e-05
4.28538e-05
9.16989e-06
4.29162e-05
1.58846e-06
3.96086e-05
-7.07763e-06
3.24864e-05
-1.74759e-05
2.13926e-05
-3.05795e-05
7.06108e-06
-4.76905e-05
-7.76807e-06
-6.97376e-05
-1.72174e-05
-9.44336e-05
-1.37679e-05
-0.000108789
-7.42404e-05
-1.34349e-05
5.39196e-05
-1.50866e-05
6.86358e-05
-5.10117e-06
5.80444e-05
9.81121e-06
4.63737e-05
2.58467e-05
3.67681e-05
4.12207e-05
2.90654e-05
5.50531e-05
2.28755e-05
6.68795e-05
1.77551e-05
7.64114e-05
1.32901e-05
8.33973e-05
9.14084e-06
8.75425e-05
5.02469e-06
8.84547e-05
6.76233e-07
8.56083e-05
-4.23118e-06
7.82967e-05
-1.01643e-05
6.56907e-05
-1.79735e-05
4.72098e-05
-2.92097e-05
2.38078e-05
-4.63356e-05
7.14843e-07
-7.13407e-05
-1.02196e-05
-9.78545e-05
-8.446e-05
-9.41409e-06
6.33337e-05
8.82176e-06
5.04e-05
3.51887e-05
3.16775e-05
6.00515e-05
2.15109e-05
8.1506e-05
1.53136e-05
9.94814e-05
1.109e-05
0.000114236
8.12071e-06
0.000126054
5.93714e-06
0.00013514
4.20444e-06
0.000141577
2.70318e-06
0.000145316
1.28594e-06
0.000146149
-1.56617e-07
0.000143685
-1.76705e-06
0.000137222
-3.70134e-06
0.000125589
-6.34012e-06
0.000106934
-1.05555e-05
7.91087e-05
-1.85099e-05
4.23122e-05
-3.45441e-05
6.90296e-06
-6.24453e-05
-7.7557e-05
6.33337e-05
0.000113734
0.000145411
0.000166922
0.000182236
0.000193326
0.000201446
0.000207383
0.000211588
0.000214291
0.000215577
0.00021542
0.000213653
0.000209952
0.000203612
0.000193056
0.000174547
0.000140002
7.7557e-05
)
;

boundaryField
{
    movingWall
    {
        type            calculated;
        value           uniform 0;
    }
    fixedWalls
    {
        type            calculated;
        value           uniform 0;
    }
    frontAndBack
    {
        type            empty;
        value           nonuniform List<scalar> 0();
    }
}


// ************************************************************************* //
