/*--------------------------------*- C++ -*----------------------------------*\
  =========                 |
  \\      /  F ield         | OpenFOAM: The Open Source CFD Toolbox
   \\    /   O peration     | Website:  https://openfoam.org
    \\  /    A nd           | Version:  8
     \\/     M anipulation  |
\*---------------------------------------------------------------------------*/
FoamFile
{
    version     2.0;
    format      ascii;
    class       volVectorField;
    location    "1";
    object      U;
}
// * * * * * * * * * * * * * * * * * * * * * * * * * * * * * * * * * * * * * //

dimensions      [0 1 -1 0 0 0 0];

internalField   nonuniform List<vector> 
400
(
(0.00120425 -0.00120827 0)
(0.000401578 0.000673236 0)
(-0.00645317 0.00286838 0)
(-0.0179739 0.00434189 0)
(-0.0321842 0.00507089 0)
(-0.0473114 0.00518717 0)
(-0.0618499 0.00480762 0)
(-0.0745175 0.00400884 0)
(-0.0842 0.00283853 0)
(-0.0899396 0.00134624 0)
(-0.0909935 -0.000383534 0)
(-0.0869558 -0.00220781 0)
(-0.0779095 -0.00391783 0)
(-0.0645609 -0.00525475 0)
(-0.0483036 -0.00594826 0)
(-0.0311585 -0.00577542 0)
(-0.0155506 -0.00463036 0)
(-0.00390986 -0.0025951 0)
(0.00189292 -8.65281e-05 0)
(0.00157778 0.00152501 0)
(-0.00062344 -0.000512329 0)
(-0.00896664 0.00884241 0)
(-0.0300657 0.0184088 0)
(-0.0604036 0.0249928 0)
(-0.0960097 0.0282471 0)
(-0.133209 0.028478 0)
(-0.168588 0.0260819 0)
(-0.199094 0.021405 0)
(-0.222074 0.0147559 0)
(-0.235328 0.00650204 0)
(-0.237269 -0.00281704 0)
(-0.227153 -0.0124133 0)
(-0.205362 -0.0212421 0)
(-0.173618 -0.0280866 0)
(-0.135055 -0.0317388 0)
(-0.0940465 -0.0312644 0)
(-0.0556846 -0.0263133 0)
(-0.0249267 -0.0174177 0)
(-0.00570082 -0.0064164 0)
(0.000312851 0.00208399 0)
(-0.00307648 0.00649956 0)
(-0.020112 0.0303406 0)
(-0.0555957 0.0520912 0)
(-0.103022 0.0669212 0)
(-0.156706 0.0740177 0)
(-0.211762 0.0738091 0)
(-0.263561 0.0670547 0)
(-0.307894 0.0545493 0)
(-0.341096 0.037123 0)
(-0.360161 0.0158102 0)
(-0.362951 -0.00794689 0)
(-0.348496 -0.0321636 0)
(-0.317327 -0.0543225 0)
(-0.271739 -0.0715744 0)
(-0.215892 -0.0811484 0)
(-0.155611 -0.0809461 0)
(-0.0977363 -0.0702357 0)
(-0.0490578 -0.0502933 0)
(-0.0155829 -0.0250373 0)
(-0.00167189 -0.00260501 0)
(-0.00527377 0.0195565 0)
(-0.0305785 0.0642549 0)
(-0.0799011 0.101456 0)
(-0.143296 0.125989 0)
(-0.213275 0.137058 0)
(-0.283979 0.135412 0)
(-0.349946 0.122289 0)
(-0.406214 0.0990392 0)
(-0.448461 0.0671518 0)
(-0.473114 0.0285029 0)
(-0.477579 -0.0143443 0)
(-0.460569 -0.0579433 0)
(-0.42248 -0.0979832 0)
(-0.365745 -0.129604 0)
(-0.295032 -0.148049 0)
(-0.217158 -0.149631 0)
(-0.140456 -0.132886 0)
(-0.0736392 -0.0996318 0)
(-0.0253458 -0.055769 0)
(-0.00346155 -0.0125747 0)
(-0.00717538 0.0379806 0)
(-0.040034 0.109566 0)
(-0.102277 0.165085 0)
(-0.180536 0.20026 0)
(-0.265514 0.215034 0)
(-0.350501 0.210865 0)
(-0.429436 0.189659 0)
(-0.496879 0.153418 0)
(-0.54808 0.10434 0)
(-0.579031 0.0451758 0)
(-0.586664 -0.0203555 0)
(-0.569184 -0.087277 0)
(-0.52651 -0.149339 0)
(-0.46075 -0.199397 0)
(-0.376628 -0.230265 0)
(-0.281631 -0.236071 0)
(-0.185567 -0.213958 0)
(-0.0994413 -0.165696 0)
(-0.0352418 -0.0987927 0)
(-0.00511112 -0.0275294 0)
(-0.00883902 0.0611785 0)
(-0.0485119 0.165369 0)
(-0.122582 0.242025 0)
(-0.214492 0.288757 0)
(-0.313246 0.306993 0)
(-0.411409 0.299376 0)
(-0.502518 0.268728 0)
(-0.58087 0.217797 0)
(-0.641468 0.149472 0)
(-0.679959 0.0672933 0)
(-0.692752 -0.0239753 0)
(-0.67733 -0.117914 0)
(-0.632749 -0.206313 0)
(-0.560297 -0.279504 0)
(-0.464219 -0.327342 0)
(-0.352296 -0.340924 0)
(-0.235754 -0.314952 0)
(-0.128316 -0.250193 0)
(-0.0462186 -0.155237 0)
(-0.0068747 -0.0476361 0)
(-0.0103048 0.0886262 0)
(-0.0560564 0.230659 0)
(-0.140729 0.331091 0)
(-0.244875 0.390261 0)
(-0.355973 0.411817 0)
(-0.466028 0.400088 0)
(-0.568383 0.359096 0)
(-0.657301 0.292415 0)
(-0.727736 0.203555 0)
(-0.775109 0.0966542 0)
(-0.795302 -0.0227448 0)
(-0.784904 -0.147035 0)
(-0.741741 -0.266181 0)
(-0.665717 -0.367857 0)
(-0.559931 -0.438391 0)
(-0.43183 -0.464764 0)
(-0.293749 -0.437758 0)
(-0.162424 -0.355632 0)
(-0.0594308 -0.227192 0)
(-0.00905034 -0.0736832 0)
(-0.0115923 0.119828 0)
(-0.0626765 0.304344 0)
(-0.156582 0.430856 0)
(-0.271231 0.50319 0)
(-0.39277 0.527944 0)
(-0.512851 0.511675 0)
(-0.62488 0.45991 0)
(-0.723366 0.37713 0)
(-0.803485 0.267345 0)
(-0.860647 0.135008 0)
(-0.890323 -0.0139633 0)
(-0.888157 -0.171225 0)
(-0.850467 -0.325274 0)
(-0.775209 -0.461209 0)
(-0.663483 -0.561365 0)
(-0.521414 -0.607398 0)
(-0.361648 -0.584184 0)
(-0.203839 -0.485182 0)
(-0.0761073 -0.317788 0)
(-0.0119665 -0.107135 0)
(-0.012722 0.154294 0)
(-0.0683999 0.385258 0)
(-0.170024 0.539631 0)
(-0.293021 0.625479 0)
(-0.422381 0.653132 0)
(-0.54965 0.631979 0)
(-0.668624 0.569399 0)
(-0.774424 0.470872 0)
(-0.862822 0.340775 0)
(-0.929581 0.183527 0)
(-0.970058 0.00489662 0)
(-0.979123 -0.186683 0)
(-0.951502 -0.3789 0)
(-0.882739 -0.55471 0)
(-0.770986 -0.692331 0)
(-0.619643 -0.76696 0)
(-0.440144 -0.755164 0)
(-0.254207 -0.64222 0)
(-0.0975091 -0.431095 0)
(-0.0160054 -0.150162 0)
(-0.0137616 0.191575 0)
(-0.073417 0.472213 0)
(-0.18118 0.655443 0)
(-0.309883 0.754413 0)
(-0.443483 0.784141 0)
(-0.57374 0.75756 0)
(-0.695262 0.68431 0)
(-0.804252 0.571001 0)
(-0.897578 0.422253 0)
(-0.971879 0.242094 0)
(-1.02292 0.0355463 0)
(-1.04527 -0.189693 0)
(-1.0323 -0.42149 0)
(-0.976972 -0.641608 0)
(-0.873624 -0.824643 0)
(-0.721207 -0.93869 0)
(-0.527549 -0.94946 0)
(-0.31431 -0.829415 0)
(-0.124916 -0.571813 0)
(-0.0216551 -0.205686 0)
(-0.0149066 0.231418 0)
(-0.0783197 0.564188 0)
(-0.190774 0.776069 0)
(-0.322013 0.886477 0)
(-0.455061 0.916408 0)
(-0.582351 0.883238 0)
(-0.699873 0.799351 0)
(-0.805499 0.672655 0)
(-0.897804 0.507927 0)
(-0.974967 0.308488 0)
(-1.03391 0.0780274 0)
(-1.06966 -0.177411 0)
(-1.07497 -0.447154 0)
(-1.04053 -0.713329 0)
(-0.956408 -0.948338 0)
(-0.815384 -1.11358 0)
(-0.618467 -1.16189 0)
(-0.383374 -1.04724 0)
(-0.15958 -0.744679 0)
(-0.0295899 -0.27747 0)
(-0.0166164 0.274098 0)
(-0.0844592 0.660697 0)
(-0.200578 0.89915 0)
(-0.330568 1.0172 0)
(-0.456717 1.04372 0)
(-0.572898 1.00168 0)
(-0.677288 0.906717 0)
(-0.770149 0.768211 0)
(-0.852439 0.591044 0)
(-0.924601 0.377601 0)
(-0.985577 0.129765 0)
(-1.03191 -0.148934 0)
(-1.05689 -0.450711 0)
(-1.05001 -0.760159 0)
(-0.997426 -1.05005 0)
(-0.884572 -1.2772 0)
(-0.702099 -1.38118 0)
(-0.457931 -1.29172 0)
(-0.202542 -0.953385 0)
(-0.0407817 -0.370273 0)
(-0.0198548 0.321069 0)
(-0.0944636 0.762365 0)
(-0.213862 1.02225 0)
(-0.337815 1.14082 0)
(-0.448524 1.15776 0)
(-0.542693 1.10295 0)
(-0.621861 0.995728 0)
(-0.689533 0.846977 0)
(-0.749714 0.661608 0)
(-0.805746 0.440936 0)
(-0.859384 0.184777 0)
(-0.909804 -0.106454 0)
(-0.952361 -0.429138 0)
(-0.977153 -0.772683 0)
(-0.968008 -1.11386 0)
(-0.903247 -1.40922 0)
(-0.760304 -1.58777 0)
(-0.530042 -1.55135 0)
(-0.254123 -1.19862 0)
(-0.0566203 -0.490038 0)
(-0.0265081 0.376104 0)
(-0.112921 0.871572 0)
(-0.235512 1.14253 0)
(-0.346346 1.24951 0)
(-0.429524 1.24731 0)
(-0.487107 1.174 0)
(-0.525671 1.05263 0)
(-0.552903 0.895264 0)
(-0.576348 0.706576 0)
(-0.602585 0.486718 0)
(-0.636618 0.233441 0)
(-0.68108 -0.0560838 0)
(-0.734885 -0.383131 0)
(-0.791085 -0.743932 0)
(-0.834158 -1.12338 0)
(-0.837765 -1.4843 0)
(-0.76561 -1.75232 0)
(-0.584613 -1.80315 0)
(-0.312579 -1.47457 0)
(-0.0788896 -0.64382 0)
(-0.0400117 0.447178 0)
(-0.14693 0.99269 0)
(-0.270691 1.25525 0)
(-0.355591 1.33147 0)
(-0.392864 1.29681 0)
(-0.394216 1.19797 0)
(-0.373365 1.06067 0)
(-0.342936 0.89707 0)
(-0.314055 0.710937 0)
(-0.296261 0.501072 0)
(-0.297545 0.263404 0)
(-0.324088 -0.00769032 0)
(-0.379233 -0.318139 0)
(-0.461207 -0.67185 0)
(-0.55913 -1.06528 0)
(-0.647229 -1.47526 0)
(-0.679313 -1.83624 0)
(-0.595268 -2.00897 0)
(-0.370688 -1.76327 0)
(-0.108964 -0.838818 0)
(-0.065727 0.549598 0)
(-0.204785 1.1304 0)
(-0.318413 1.34935 0)
(-0.351117 1.36696 0)
(-0.313332 1.28405 0)
(-0.232473 1.1536 0)
(-0.131015 1.00091 0)
(-0.026254 0.835929 0)
(0.0681291 0.66022 0)
(0.140933 0.470854 0)
(0.182469 0.262307 0)
(0.184035 0.0271703 0)
(0.138233 -0.243728 0)
(0.0405709 -0.560879 0)
(-0.106513 -0.933332 0)
(-0.28528 -1.35847 0)
(-0.44954 -1.79533 0)
(-0.517924 -2.11348 0)
(-0.407926 -2.02761 0)
(-0.14428 -1.0812 0)
(-0.108567 0.71228 0)
(-0.286132 1.28103 0)
(-0.349039 1.39389 0)
(-0.276179 1.31835 0)
(-0.119793 1.17543 0)
(0.0729618 1.01458 0)
(0.272947 0.85422 0)
(0.461362 0.698407 0)
(0.625092 0.544788 0)
(0.754042 0.388302 0)
(0.839254 0.222506 0)
(0.871698 0.0396022 0)
(0.841782 -0.17042 0)
(0.739666 -0.421255 0)
(0.557635 -0.73142 0)
(0.298021 -1.12026 0)
(-0.0089091 -1.58603 0)
(-0.281546 -2.04378 0)
(-0.376151 -2.20128 0)
(-0.167839 -1.37425 0)
(-0.155468 0.978649 0)
(-0.340184 1.40073 0)
(-0.237196 1.30672 0)
(0.0334302 1.11502 0)
(0.355083 0.924006 0)
(0.67494 0.754536 0)
(0.970016 0.608861 0)
(1.22841 0.482079 0)
(1.44331 0.36726 0)
(1.60978 0.257631 0)
(1.72267 0.146834 0)
(1.77536 0.0283053 0)
(1.7589 -0.106036 0)
(1.66107 -0.268195 0)
(1.46598 -0.478274 0)
(1.15738 -0.769036 0)
(0.731588 -1.18095 0)
(0.228374 -1.71383 0)
(-0.173246 -2.16016 0)
(-0.118923 -1.67557 0)
(-0.0475804 1.26979 0)
(-0.0720902 1.31717 0)
(0.411524 0.969202 0)
(0.958431 0.709745 0)
(1.42988 0.529509 0)
(1.82363 0.398561 0)
(2.14985 0.301258 0)
(2.41486 0.226233 0)
(2.62346 0.164666 0)
(2.77866 0.110175 0)
(2.88094 0.0580493 0)
(2.92785 0.00430745 0)
(2.91366 -0.0552902 0)
(2.8279 -0.127374 0)
(2.65272 -0.224431 0)
(2.35922 -0.373367 0)
(1.90251 -0.630531 0)
(1.22505 -1.07949 0)
(0.453072 -1.68904 0)
(0.21762 -1.70234 0)
(1.43868 0.707408 0)
(1.83622 0.626764 0)
(2.56406 0.398403 0)
(3.13831 0.251752 0)
(3.51283 0.164317 0)
(3.77012 0.109475 0)
(3.95776 0.0740359 0)
(4.09619 0.0502631 0)
(4.19638 0.0331404 0)
(4.26478 0.0195361 0)
(4.30448 0.00750066 0)
(4.31597 -0.00430464 0)
(4.29742 -0.0169577 0)
(4.24404 -0.0321822 0)
(4.14603 -0.0531946 0)
(3.98225 -0.0880052 0)
(3.70345 -0.158392 0)
(3.17525 -0.31623 0)
(2.3002 -0.622913 0)
(1.66875 -0.780085 0)
)
;

boundaryField
{
    movingWall
    {
        type            fixedValue;
        value           uniform (5.07548 0 0);
    }
    fixedWalls
    {
        type            noSlip;
    }
    frontAndBack
    {
        type            empty;
    }
}


// ************************************************************************* //
