/*--------------------------------*- C++ -*----------------------------------*\
| =========                 |                                                 |
| \\      /  F ield         | OpenFOAM: The Open Source CFD Toolbox           |
|  \\    /   O peration     | Version:  2212                                  |
|   \\  /    A nd           | Website:  www.openfoam.com                      |
|    \\/     M anipulation  |                                                 |
\*---------------------------------------------------------------------------*/
FoamFile
{
    version     2.0;
    format      ascii;
    arch        "LSB;label=32;scalar=64";
    class       volVectorField;
    location    "0.5";
    object      U;
}
// * * * * * * * * * * * * * * * * * * * * * * * * * * * * * * * * * * * * * //

dimensions      [0 1 -1 0 0 0 0];

internalField   nonuniform List<vector> 
44
(
(0.128437 0 0)
(0.115082 0 0)
(0.0987822 0 0)
(0.0798577 0 0)
(0.0587328 0 0)
(0.0359381 0 0)
(0.154544 0 0)
(0.138679 0 0)
(0.119229 0 0)
(0.0965407 0 0)
(0.0711026 0 0)
(0.043553 0 0)
(0.0146697 0 0)
(0.184472 0 0)
(0.165866 0 0)
(0.142918 0 0)
(0.115978 0 0)
(0.085587 0 0)
(0.0525036 0 0)
(0.0176989 0 0)
(0.218954 0 0)
(0.197403 0 0)
(0.170606 0 0)
(0.138872 0 0)
(0.102767 0 0)
(0.0631773 0 0)
(0.021322 0 0)
(0.258821 0 0)
(0.234193 0 0)
(0.203237 0 0)
(0.16614 0 0)
(0.123434 0 0)
(0.0761192 0 0)
(0.0257344 0 0)
(0.305006 0 0)
(0.277316 0 0)
(0.242013 0 0)
(0.199024 0 0)
(0.148711 0 0)
(0.0921333 0 0)
(0.0312315 0 0)
(0.180257 0 0)
(0.112473 0 0)
(0.0382905 0 0)
)
;

boundaryField
{
    movingWall
    {
        type            fixedValue;
        value           nonuniform List<vector> 0();
    }
    fixedWalls
    {
        type            noSlip;
    }
    frontAndBack
    {
        type            empty;
    }
    procBoundary5to2
    {
        type            processor;
        value           nonuniform List<vector> 8((0.105512 0 0) (0.0944387 0 0) (0.0809677 0 0) (0.0653809 0 0) (0.0480373 0 0) (0.0293718 0 0) (0.0120979 0 0) (0.0120979 0 0));
    }
    procBoundary5to4
    {
        type            processor;
        value           nonuniform List<vector> 6((0.138624 0 0) (0.166597 0 0) (0.198534 0 0) (0.23513 0 0) (0.277142 0 0) (0.325368 0 0));
    }
    procBoundary5to8
    {
        type            processor;
        value           nonuniform List<vector> 8((0.358535 0 0) (0.328063 0 0) (0.288484 0 0) (0.239236 0 0) (0.239236 0 0) (0.220615 0 0) (0.139213 0 0) (0.0477489 0 0));
    }
}


// ************************************************************************* //
