/*--------------------------------*- C++ -*----------------------------------*\
  =========                 |
  \\      /  F ield         | OpenFOAM: The Open Source CFD Toolbox
   \\    /   O peration     | Website:  https://openfoam.org
    \\  /    A nd           | Version:  9
     \\/     M anipulation  |
\*---------------------------------------------------------------------------*/
FoamFile
{
    format      ascii;
    class       volVectorField;
    location    "0.035";
    object      U;
}
// * * * * * * * * * * * * * * * * * * * * * * * * * * * * * * * * * * * * * //

dimensions      [0 1 -1 0 0 0 0];

internalField   nonuniform List<vector> 
40
(
(-0.0650687 4.7873e-05 0)
(-0.0638132 -0.00102488 0)
(-0.0599317 -0.00177572 0)
(-0.0537978 -0.00261687 0)
(-0.150486 -0.000188612 0)
(-0.147571 -0.00515443 0)
(-0.138468 -0.00918594 0)
(-0.124129 -0.0132 0)
(-0.213245 -0.00125582 0)
(-0.208883 -0.0131174 0)
(-0.19581 -0.0232191 0)
(-0.175229 -0.0328611 0)
(-0.266267 -0.00310118 0)
(-0.260843 -0.0237552 0)
(-0.244523 -0.0418532 0)
(-0.218726 -0.0588405 0)
(-0.314137 -0.005247 0)
(-0.308427 -0.0363731 0)
(-0.289772 -0.0642713 0)
(-0.258956 -0.0898579 0)
(-0.359978 -0.00645693 0)
(-0.355546 -0.0498384 0)
(-0.335731 -0.0893429 0)
(-0.301939 -0.126082 0)
(-0.405611 -0.00514639 0)
(-0.404801 -0.0621676 0)
(-0.386 -0.115729 0)
(-0.350443 -0.166107 0)
(-0.454062 -0.000317284 0)
(-0.45574 -0.0718803 0)
(-0.439744 -0.141184 0)
(-0.404763 -0.208144 0)
(-0.506142 0.00642272 0)
(-0.508286 -0.0794268 0)
(-0.493549 -0.163607 0)
(-0.461172 -0.249019 0)
(-0.562451 0.01176 0)
(-0.56482 -0.0862002 0)
(-0.550397 -0.184198 0)
(-0.51812 -0.286231 0)
)
;

boundaryField
{
    movingWall
    {
        type            fixedValue;
        value           nonuniform List<vector> 0();
    }
    fixedWalls
    {
        type            noSlip;
    }
    frontAndBack
    {
        type            empty;
    }
    procBoundary5to2
    {
        type            processor;
        value           nonuniform List<vector> 8((-0.0637154 0.00126003 0) (-0.14795 0.00521124 0) (-0.210435 0.0114725 0) (-0.263103 0.0188259 0) (-0.309918 0.0274688 0) (-0.353127 0.0383477 0) (-0.395575 0.0528208 0) (-0.440493 0.0709505 0));
    }
    procBoundary5to3
    {
        type            processor;
        value           nonuniform List<vector> 2((-0.492261 0.0910657 0) (-0.552463 0.109771 0));
    }
    procBoundary5to6
    {
        type            processor;
        value           nonuniform List<vector> 4((-0.620535 0.0152689 0) (-0.623033 -0.0938895 0) (-0.60961 -0.20504 0) (-0.578806 -0.324399 0));
    }
    procBoundary5to7
    {
        type            processor;
        value           nonuniform List<vector> 6((-0.0456744 -0.00359897 0) (-0.105773 -0.0173367 0) (-0.149426 -0.0422626 0) (-0.186396 -0.0746042 0) (-0.22085 -0.113615 0) (-0.257382 -0.158426 0));
    }
    procBoundary5to8
    {
        type            processor;
        value           nonuniform List<vector> 4((-0.302245 -0.211118 0) (-0.355151 -0.26924 0) (-0.41153 -0.329233 0) (-0.470862 -0.388943 0));
    }
}


// ************************************************************************* //
