/*--------------------------------*- C++ -*----------------------------------*\
  =========                 |
  \\      /  F ield         | OpenFOAM: The Open Source CFD Toolbox
   \\    /   O peration     | Website:  https://openfoam.org
    \\  /    A nd           | Version:  9
     \\/     M anipulation  |
\*---------------------------------------------------------------------------*/
FoamFile
{
    format      ascii;
    class       surfaceScalarField;
    location    "0.09";
    object      phi;
}
// * * * * * * * * * * * * * * * * * * * * * * * * * * * * * * * * * * * * * //

dimensions      [0 3 -1 0 0 0 0];

internalField   nonuniform List<scalar> 
67
(
-3.11815e-05
-8.18887e-05
-2.07805e-05
-8.77594e-05
-7.97209e-06
-7.53758e-05
-3.46332e-05
-2.92218e-05
-4.6213e-05
-3.14339e-05
-6.50785e-05
-2.99619e-05
-8.33607e-05
-2.26678e-05
-9.50535e-05
-1.00216e-05
-8.8022e-05
-4.46548e-05
-1.14322e-05
-3.92192e-05
-1.87459e-05
-5.77648e-05
-2.36548e-05
-7.84519e-05
-2.22741e-05
-9.64342e-05
-1.20816e-05
-9.82146e-05
-5.67364e-05
1.68205e-05
-2.92031e-05
4.09658e-06
-4.50409e-05
-8.85652e-06
-6.54988e-05
-1.6819e-05
-8.84716e-05
-1.30888e-05
-0.000101945
-6.98252e-05
5.8388e-05
-1.72929e-05
4.12725e-05
-2.79254e-05
1.99216e-05
-4.41479e-05
-8.50751e-07
-6.76993e-05
-1.01303e-05
-9.26653e-05
-7.99554e-05
0.000116906
-6.01896e-06
9.90721e-05
-1.00912e-05
7.27571e-05
-1.78329e-05
3.83223e-05
-3.32645e-05
5.57312e-06
-5.99161e-05
-7.43823e-05
0.000195487
0.000185396
0.000167563
0.000134298
7.43823e-05
)
;

boundaryField
{
    movingWall
    {
        type            calculated;
        value           uniform 0;
    }
    fixedWalls
    {
        type            calculated;
        value           uniform 0;
    }
    frontAndBack
    {
        type            empty;
        value           nonuniform List<scalar> 0();
    }
    procBoundary9to6
    {
        type            processor;
        value           nonuniform List<scalar> 6(2.55626e-05 4.43843e-06 -2.68366e-05 -7.02983e-05 -0.00012818 -0.000201506);
    }
    procBoundary9to8
    {
        type            processor;
        value           nonuniform List<scalar> 7(7.60347e-05 7.73583e-05 6.25675e-05 2.66611e-05 4.98722e-05 3.70355e-05 6.72906e-05);
    }
}


// ************************************************************************* //
