/*--------------------------------*- C++ -*----------------------------------*\
  =========                 |
  \\      /  F ield         | OpenFOAM: The Open Source CFD Toolbox
   \\    /   O peration     | Website:  https://openfoam.org
    \\  /    A nd           | Version:  9
     \\/     M anipulation  |
\*---------------------------------------------------------------------------*/
FoamFile
{
    format      ascii;
    class       volVectorField;
    location    "0.09";
    object      U;
}
// * * * * * * * * * * * * * * * * * * * * * * * * * * * * * * * * * * * * * //

dimensions      [0 1 -1 0 0 0 0];

internalField   nonuniform List<vector> 
40
(
(-0.707067 -1.61023 0)
(-0.539351 -1.67676 0)
(-0.29086 -1.39192 0)
(-0.0761598 -0.613451 0)
(-0.552669 -0.984909 0)
(-0.620241 -1.3583 0)
(-0.638403 -1.69422 0)
(-0.554437 -1.86773 0)
(-0.346079 -1.65821 0)
(-0.105352 -0.796258 0)
(-0.151874 -0.87682 0)
(-0.303974 -1.26526 0)
(-0.441743 -1.66886 0)
(-0.493078 -1.97103 0)
(-0.383954 -1.90454 0)
(-0.139201 -1.02424 0)
(0.457455 -0.69908 0)
(0.223971 -1.05853 0)
(-0.0495443 -1.49078 0)
(-0.288376 -1.9188 0)
(-0.361749 -2.07205 0)
(-0.161881 -1.30128 0)
(1.32126 -0.463689 0)
(1.03153 -0.738071 0)
(0.636566 -1.12654 0)
(0.175274 -1.6281 0)
(-0.184207 -2.05011 0)
(-0.117887 -1.59435 0)
(2.49326 -0.217517 0)
(2.21 -0.362329 0)
(1.77164 -0.612966 0)
(1.12613 -1.04511 0)
(0.402842 -1.62791 0)
(0.200303 -1.63686 0)
(4.00944 -0.0500833 0)
(3.85337 -0.0845427 0)
(3.58393 -0.15523 0)
(3.06732 -0.311658 0)
(2.2205 -0.609128 0)
(1.61768 -0.758629 0)
)
;

boundaryField
{
    movingWall
    {
        type            fixedValue;
        value           uniform (4.94934 0 0);
    }
    fixedWalls
    {
        type            noSlip;
    }
    frontAndBack
    {
        type            empty;
    }
    procBoundary9to6
    {
        type            processor;
        value           nonuniform List<vector> 6((-0.472259 -0.627251 0) (-0.0258603 -0.536057 0) (0.618868 -0.411725 0) (1.4974 -0.265454 0) (2.64582 -0.124158 0) (4.07304 -0.0297998 0));
    }
    procBoundary9to8
    {
        type            processor;
        value           nonuniform List<vector> 7((-0.690619 -1.4464 0) (-0.482946 -1.43532 0) (-0.233987 -1.12899 0) (-0.0537555 -0.465937 0) (-0.781081 -1.01876 0) (-0.773613 -1.34565 0) (-0.773613 -1.34565 0));
    }
}


// ************************************************************************* //
