/*--------------------------------*- C++ -*----------------------------------*\
| =========                 |                                                 |
| \\      /  F ield         | OpenFOAM: The Open Source CFD Toolbox           |
|  \\    /   O peration     | Version:  2212                                  |
|   \\  /    A nd           | Website:  www.openfoam.com                      |
|    \\/     M anipulation  |                                                 |
\*---------------------------------------------------------------------------*/
FoamFile
{
    version     2.0;
    format      ascii;
    arch        "LSB;label=32;scalar=64";
    class       volVectorField;
    location    "0.2";
    object      U;
}
// * * * * * * * * * * * * * * * * * * * * * * * * * * * * * * * * * * * * * //

dimensions      [0 1 -1 0 0 0 0];

internalField   nonuniform List<vector> 
44
(
(0.10711 0 0)
(0.112477 0 0)
(0.115177 0 0)
(0.115173 0 0)
(0.131167 0 0)
(0.137646 0 0)
(0.140902 0 0)
(0.1409 0 0)
(0.137637 0 0)
(0.131156 0 0)
(0.158737 0 0)
(0.166428 0 0)
(0.170287 0 0)
(0.170285 0 0)
(0.166422 0 0)
(0.15873 0 0)
(0.190462 0 0)
(0.199453 0 0)
(0.203954 0 0)
(0.203953 0 0)
(0.19945 0 0)
(0.190458 0 0)
(0.227043 0 0)
(0.237393 0 0)
(0.242558 0 0)
(0.242557 0 0)
(0.237392 0 0)
(0.227042 0 0)
(0.269238 0 0)
(0.280944 0 0)
(0.286762 0 0)
(0.286762 0 0)
(0.280946 0 0)
(0.269239 0 0)
(0.317841 0 0)
(0.330802 0 0)
(0.337211 0 0)
(0.337212 0 0)
(0.330806 0 0)
(0.317844 0 0)
(0.394475 0 0)
(0.394477 0 0)
(0.38762 0 0)
(0.373656 0 0)
)
;

boundaryField
{
    movingWall
    {
        type            fixedValue;
        value           nonuniform List<vector> 0();
    }
    fixedWalls
    {
        type            noSlip;
    }
    frontAndBack
    {
        type            empty;
    }
    procBoundary4to0
    {
        type            processor;
        value           uniform (0.0991662 0 0);
    }
    procBoundary4to1
    {
        type            processor;
        value           nonuniform List<vector> 7((0.0859837 0 0) (0.0903361 0 0) (0.0925295 0 0) (0.0925279 0 0) (0.112468 0 0) (0.112468 0 0) (0.1071 0 0));
    }
    procBoundary4to3
    {
        type            processor;
        value           nonuniform List<vector> 6((0.121552 0 0) (0.147288 0 0) (0.17702 0 0) (0.211489 0 0) (0.251524 0 0) (0.298059 0 0));
    }
    procBoundary4to5
    {
        type            processor;
        value           nonuniform List<vector> 6((0.121543 0 0) (0.147282 0 0) (0.177018 0 0) (0.211489 0 0) (0.251527 0 0) (0.298062 0 0));
    }
    procBoundary4to7
    {
        type            processor;
        value           nonuniform List<vector> 7((0.373658 0 0) (0.387618 0 0) (0.387618 0 0) (0.458986 0 0) (0.458985 0 0) (0.451916 0 0) (0.43741 0 0));
    }
    procBoundary4to8
    {
        type            processor;
        value           uniform (0.352116 0 0);
    }
}


// ************************************************************************* //
