/*--------------------------------*- C++ -*----------------------------------*\
| =========                 |                                                 |
| \\      /  F ield         | OpenFOAM: The Open Source CFD Toolbox           |
|  \\    /   O peration     | Version:  2212                                  |
|   \\  /    A nd           | Website:  www.openfoam.com                      |
|    \\/     M anipulation  |                                                 |
\*---------------------------------------------------------------------------*/
FoamFile
{
    version     2.0;
    format      ascii;
    arch        "LSB;label=32;scalar=64";
    class       volVectorField;
    location    "0.2";
    object      U;
}
// * * * * * * * * * * * * * * * * * * * * * * * * * * * * * * * * * * * * * //

dimensions      [0 1 -1 0 0 0 0];

internalField   nonuniform List<vector> 
44
(
(0.00680328 0 0)
(0.00715442 0 0)
(0.00733184 0 0)
(0.00733182 0 0)
(0.00715437 0 0)
(0.00680317 0 0)
(0.00628566 0 0)
(0.0206069 0 0)
(0.0216694 0 0)
(0.0222062 0 0)
(0.0222061 0 0)
(0.0216692 0 0)
(0.0206066 0 0)
(0.0190405 0 0)
(0.0350059 0 0)
(0.0368069 0 0)
(0.0377164 0 0)
(0.0377163 0 0)
(0.0368065 0 0)
(0.0350054 0 0)
(0.0323499 0 0)
(0.0504106 0 0)
(0.0529947 0 0)
(0.0542992 0 0)
(0.054299 0 0)
(0.052994 0 0)
(0.0504096 0 0)
(0.046597 0 0)
(0.0672506 0 0)
(0.0706798 0 0)
(0.0724099 0 0)
(0.0724093 0 0)
(0.0706787 0 0)
(0.0672489 0 0)
(0.0621848 0 0)
(0.0859837 0 0)
(0.0903361 0 0)
(0.0925295 0 0)
(0.0925279 0 0)
(0.0903344 0 0)
(0.0859809 0 0)
(0.0795451 0 0)
(0.112468 0 0)
(0.1071 0 0)
)
;

boundaryField
{
    movingWall
    {
        type            fixedValue;
        value           nonuniform List<vector> 0();
    }
    fixedWalls
    {
        type            noSlip;
    }
    frontAndBack
    {
        type            empty;
    }
    procBoundary1to0
    {
        type            processor;
        value           nonuniform List<vector> 6((0.00628603 0 0) (0.0190416 0 0) (0.0323518 0 0) (0.0466 0 0) (0.0621896 0 0) (0.0795539 0 0));
    }
    procBoundary1to2
    {
        type            processor;
        value           nonuniform List<vector> 8((0.00561353 0 0) (0.0170059 0 0) (0.0288984 0 0) (0.0416378 0 0) (0.0555912 0 0) (0.071156 0 0) (0.0991561 0 0) (0.0991561 0 0));
    }
    procBoundary1to4
    {
        type            processor;
        value           nonuniform List<vector> 7((0.10711 0 0) (0.112477 0 0) (0.115177 0 0) (0.115173 0 0) (0.115173 0 0) (0.137637 0 0) (0.131156 0 0));
    }
}


// ************************************************************************* //
