/*--------------------------------*- C++ -*----------------------------------*\
  =========                 |
  \\      /  F ield         | OpenFOAM: The Open Source CFD Toolbox
   \\    /   O peration     | Website:  https://openfoam.org
    \\  /    A nd           | Version:  8
     \\/     M anipulation  |
\*---------------------------------------------------------------------------*/
FoamFile
{
    version     2.0;
    format      ascii;
    class       volScalarField;
    location    "1";
    object      p;
}
// * * * * * * * * * * * * * * * * * * * * * * * * * * * * * * * * * * * * * //

dimensions      [0 2 -2 0 0 0 0];

internalField   nonuniform List<scalar> 
400
(
-0.0991354
-0.198079
-0.251201
-0.276565
-0.280192
-0.267976
-0.243039
-0.205967
-0.159404
-0.106341
-0.0490107
0.0104036
0.0691365
0.124046
0.17226
0.21173
0.241462
0.261442
0.272451
0.276113
-0.198466
-0.238923
-0.268437
-0.283577
-0.282558
-0.267704
-0.241365
-0.204233
-0.158495
-0.106507
-0.0500855
0.0087467
0.0672095
0.122029
0.170138
0.209317
0.238496
0.257603
0.266999
0.266648
-0.250139
-0.26834
-0.280138
-0.284536
-0.277205
-0.259857
-0.233791
-0.1987
-0.15613
-0.107859
-0.0550363
0.00087933
0.0573032
0.110733
0.157622
0.195323
0.222653
0.239756
0.247197
0.245446
-0.273133
-0.280629
-0.280631
-0.276435
-0.263811
-0.244685
-0.21994
-0.188449
-0.151126
-0.109137
-0.0627181
-0.0123885
0.0397642
0.0901042
0.134533
0.169841
0.194593
0.209058
0.214146
0.210894
-0.277954
-0.278984
-0.271537
-0.260946
-0.243989
-0.223443
-0.200361
-0.173045
-0.141927
-0.107851
-0.0702627
-0.0285087
0.0162434
0.0606113
0.100217
0.131464
0.152685
0.164058
0.166794
0.162326
-0.270265
-0.267559
-0.255652
-0.240975
-0.221041
-0.199669
-0.178572
-0.155686
-0.130938
-0.105374
-0.0782422
-0.0477661
-0.0137063
0.0214999
0.0537718
0.0794182
0.0964963
0.104795
0.105768
0.101026
-0.255693
-0.251756
-0.23819
-0.222149
-0.201184
-0.179899
-0.16111
-0.1427
-0.123606
-0.105527
-0.0886528
-0.0707479
-0.0498981
-0.0267185
-0.00405545
0.0148669
0.0278343
0.033831
0.0342523
0.0305353
-0.239565
-0.236723
-0.224433
-0.210225
-0.190921
-0.171201
-0.155252
-0.141864
-0.127811
-0.115131
-0.106285
-0.0999905
-0.0929719
-0.0832813
-0.0714251
-0.0593719
-0.0495079
-0.0441693
-0.0426993
-0.044448
-0.224312
-0.224824
-0.216819
-0.208144
-0.194375
-0.179037
-0.167087
-0.160641
-0.152862
-0.144236
-0.140097
-0.142025
-0.146626
-0.149323
-0.147421
-0.140783
-0.131748
-0.124537
-0.120355
-0.120341
-0.208162
-0.213719
-0.212679
-0.213355
-0.210243
-0.204459
-0.198581
-0.202377
-0.205254
-0.202652
-0.201376
-0.207275
-0.218858
-0.229975
-0.234662
-0.2301
-0.218236
-0.205653
-0.196942
-0.196521
-0.18498
-0.19612
-0.204574
-0.218334
-0.231645
-0.244007
-0.24797
-0.265322
-0.285179
-0.29483
-0.298748
-0.306458
-0.32013
-0.334064
-0.340141
-0.332902
-0.313447
-0.290774
-0.274441
-0.274231
-0.145602
-0.162181
-0.184258
-0.216056
-0.250856
-0.292944
-0.314274
-0.347439
-0.388356
-0.417362
-0.432499
-0.443801
-0.457029
-0.468884
-0.471228
-0.456802
-0.425026
-0.386244
-0.355735
-0.351704
-0.0811971
-0.104226
-0.147987
-0.207253
-0.266739
-0.34722
-0.398004
-0.450417
-0.511629
-0.562273
-0.59369
-0.612271
-0.624808
-0.631283
-0.626344
-0.602713
-0.556301
-0.495238
-0.438676
-0.418308
0.0130067
-0.0209043
-0.0964756
-0.197854
-0.285873
-0.398433
-0.487088
-0.567099
-0.649212
-0.720941
-0.771255
-0.798951
-0.806902
-0.800868
-0.783794
-0.751388
-0.693007
-0.607257
-0.509739
-0.452412
0.138402
0.083571
-0.0259268
-0.174894
-0.303337
-0.425783
-0.5414
-0.657827
-0.774031
-0.877531
-0.956985
-0.999332
-0.983144
-0.940898
-0.896078
-0.851725
-0.78784
-0.684419
-0.539244
-0.425388
0.302155
0.209136
0.0779091
-0.0842386
-0.265795
-0.397227
-0.527451
-0.689579
-0.875009
-1.05171
-1.18656
-1.23971
-1.18228
-1.05108
-0.91736
-0.825902
-0.753215
-0.651438
-0.480008
-0.309732
0.524932
0.382508
0.239107
0.116627
-0.0926274
-0.292137
-0.515273
-0.782603
-1.07128
-1.3331
-1.51557
-1.57619
-1.49581
-1.2632
-0.954305
-0.668491
-0.482881
-0.389879
-0.265081
-0.0886545
0.836992
0.689824
0.543253
0.366606
0.0751778
-0.269838
-0.665069
-1.0671
-1.41555
-1.6781
-1.84399
-1.90775
-1.85884
-1.66415
-1.27347
-0.69498
-0.131944
0.200153
0.247597
0.314973
1.45384
1.25489
0.951261
0.481726
-0.106509
-0.645267
-1.086
-1.44525
-1.73004
-1.94107
-2.08017
-2.14718
-2.13265
-2.00831
-1.71899
-1.17858
-0.310568
0.604403
1.10229
1.19887
2.09893
1.62225
0.829834
-0.00155891
-0.584786
-1.00237
-1.34127
-1.62701
-1.85986
-2.03764
-2.16021
-2.22631
-2.22743
-2.14317
-1.94052
-1.57442
-0.944033
0.126473
1.46105
2.18851
)
;

boundaryField
{
    movingWall
    {
        type            zeroGradient;
    }
    fixedWalls
    {
        type            zeroGradient;
    }
    frontAndBack
    {
        type            empty;
    }
}


// ************************************************************************* //
