/*--------------------------------*- C++ -*----------------------------------*\
  =========                 |
  \\      /  F ield         | OpenFOAM: The Open Source CFD Toolbox
   \\    /   O peration     | Website:  https://openfoam.org
    \\  /    A nd           | Version:  8
     \\/     M anipulation  |
\*---------------------------------------------------------------------------*/
FoamFile
{
    version     2.0;
    format      ascii;
    class       surfaceScalarField;
    location    "1";
    object      phi;
}
// * * * * * * * * * * * * * * * * * * * * * * * * * * * * * * * * * * * * * //

dimensions      [0 3 -1 0 0 0 0];

internalField   nonuniform List<scalar> 
760
(
6.40708e-08
-6.40427e-08
-1.33795e-07
1.97867e-07
-6.01153e-07
4.67361e-07
-1.24929e-06
6.48131e-07
-1.98546e-06
7.36171e-07
-2.72864e-06
7.43183e-07
-3.40996e-06
6.81316e-07
-3.97005e-06
5.60091e-07
-4.35725e-06
3.87203e-07
-4.52883e-06
1.71578e-07
-4.45557e-06
-7.32576e-08
-4.12878e-06
-3.26787e-07
-3.56761e-06
-5.61178e-07
-2.82419e-06
-7.43419e-07
-1.98393e-06
-8.40255e-07
-1.15852e-06
-8.25416e-07
-4.70474e-07
-6.88044e-07
-2.98465e-08
-4.40628e-07
1.02151e-07
-1.31995e-07
1.02154e-07
-1.96141e-07
1.3209e-07
-9.65687e-07
9.67421e-07
-2.2558e-06
1.75748e-06
-3.90446e-06
2.29679e-06
-5.7257e-06
2.55741e-06
-7.54084e-06
2.55832e-06
-9.18845e-06
2.32894e-06
-1.05265e-05
1.8981e-06
-1.14337e-05
1.29444e-06
-1.18153e-05
5.53125e-07
-1.16124e-05
-2.76147e-07
-1.08153e-05
-1.1238e-06
-9.47617e-06
-1.90036e-06
-7.71591e-06
-2.50368e-06
-5.72233e-06
-2.83384e-06
-3.73303e-06
-2.81472e-06
-2.00191e-06
-2.41917e-06
-7.49932e-07
-1.69261e-06
-1.03253e-07
-7.78682e-07
-1.09672e-09
-5.05902e-07
6.37997e-07
-1.89154e-06
2.35306e-06
-3.96554e-06
3.83148e-06
-6.48758e-06
4.81883e-06
-9.20496e-06
5.27479e-06
-1.18756e-05
5.229e-06
-1.42783e-05
4.73163e-06
-1.62168e-05
3.83659e-06
-1.75245e-05
2.60209e-06
-1.80724e-05
1.10108e-06
-1.77825e-05
-5.66024e-07
-1.66432e-05
-2.26315e-06
-1.47244e-05
-3.81915e-06
-1.21871e-05
-5.04095e-06
-9.2809e-06
-5.74008e-06
-6.32377e-06
-5.77184e-06
-3.66137e-06
-5.08157e-06
-1.60695e-06
-3.74702e-06
-3.7122e-07
-2.01442e-06
-3.72315e-07
-7.89087e-07
1.42709e-06
-2.76728e-06
4.33125e-06
-5.58523e-06
6.64943e-06
-8.90887e-06
8.14247e-06
-1.2423e-05
8.78887e-06
-1.58377e-05
8.6438e-06
-1.8892e-05
7.78583e-06
-2.13543e-05
6.29892e-06
-2.30275e-05
4.27531e-06
-2.37572e-05
1.83081e-06
-2.34459e-05
-8.7737e-07
-2.20705e-05
-3.63856e-06
-1.9701e-05
-6.18867e-06
-1.65143e-05
-8.22765e-06
-1.27971e-05
-9.4572e-06
-8.93021e-06
-9.63878e-06
-5.34691e-06
-8.66487e-06
-2.46831e-06
-6.62562e-06
-6.25995e-07
-3.85673e-06
-9.98309e-07
-1.04137e-06
2.46846e-06
-3.56835e-06
6.85822e-06
-7.08012e-06
1.01612e-05
-1.11459e-05
1.22082e-05
-1.53903e-05
1.30333e-05
-1.94852e-05
1.27387e-05
-2.3142e-05
1.14427e-05
-2.6107e-05
9.26389e-06
-2.81613e-05
6.32965e-06
-2.91279e-05
2.79741e-06
-2.88847e-05
-1.12061e-06
-2.73839e-05
-5.13938e-06
-2.46752e-05
-8.89731e-06
-2.09286e-05
-1.19743e-05
-1.64485e-05
-1.39373e-05
-1.16695e-05
-1.44177e-05
-7.1218e-06
-1.32126e-05
-3.36135e-06
-1.03861e-05
-8.76743e-07
-6.34134e-06
-1.87505e-06
-1.26625e-06
3.73471e-06
-4.29246e-06
9.88444e-06
-8.44052e-06
1.43093e-05
-1.31879e-05
1.69556e-05
-1.81046e-05
1.795e-05
-2.28322e-05
1.74663e-05
-2.70651e-05
1.56756e-05
-3.05371e-05
1.27359e-05
-3.30147e-05
8.80722e-06
-3.4299e-05
4.08174e-06
-3.4237e-05
-1.18269e-06
-3.27411e-05
-6.63524e-06
-2.98189e-05
-1.18195e-05
-2.56072e-05
-1.61859e-05
-2.04054e-05
-1.91392e-05
-1.46909e-05
-2.01322e-05
-9.10018e-06
-1.88033e-05
-4.35681e-06
-1.51294e-05
-1.15137e-06
-9.54678e-06
-3.02642e-06
-1.46606e-06
5.20077e-06
-4.93891e-06
1.33573e-05
-9.65731e-06
1.90277e-05
-1.50155e-05
2.23138e-05
-2.05366e-05
2.34711e-05
-2.58416e-05
2.27713e-05
-3.06189e-05
2.04529e-05
-3.46003e-05
1.67173e-05
-3.75455e-05
1.17524e-05
-3.92371e-05
5.7733e-06
-3.94864e-05
-9.33373e-07
-3.8153e-05
-7.96864e-06
-3.51788e-05
-1.47937e-05
-3.06369e-05
-2.07278e-05
-2.47884e-05
-2.49877e-05
-1.81304e-05
-2.67902e-05
-1.14055e-05
-2.55282e-05
-5.53827e-06
-2.09967e-05
-1.4822e-06
-1.36028e-05
-4.50863e-06
-1.64146e-06
6.84222e-06
-5.50474e-06
1.72206e-05
-1.0716e-05
2.42389e-05
-1.65944e-05
2.81922e-05
-2.26257e-05
2.95024e-05
-2.84221e-05
2.85677e-05
-3.36795e-05
2.57103e-05
-3.81414e-05
2.11792e-05
-4.15729e-05
1.5184e-05
-4.37462e-05
7.94667e-06
-4.44392e-05
-2.40388e-07
-4.34502e-05
-8.95765e-06
-4.06346e-05
-1.76093e-05
-3.59659e-05
-2.53964e-05
-2.9621e-05
-3.13327e-05
-2.20713e-05
-3.43399e-05
-1.41438e-05
-3.34557e-05
-6.98929e-06
-2.81512e-05
-1.90326e-06
-1.86889e-05
-6.41188e-06
-1.79324e-06
8.63547e-06
-5.98792e-06
2.14153e-05
-1.16005e-05
2.98515e-05
-1.788e-05
3.44716e-05
-2.42851e-05
3.59075e-05
-3.04337e-05
3.47163e-05
-3.60464e-05
3.1323e-05
-4.0897e-05
2.60298e-05
-4.47747e-05
1.90616e-05
-4.74578e-05
1.06298e-05
-4.87022e-05
1.00404e-06
-4.82477e-05
-9.41217e-06
-4.58496e-05
-2.00075e-05
-4.13467e-05
-2.98993e-05
-3.47719e-05
-3.79075e-05
-2.64977e-05
-4.26141e-05
-1.73762e-05
-4.25771e-05
-8.78418e-06
-3.67432e-05
-2.45014e-06
-2.50229e-05
-8.86202e-06
-1.92667e-06
1.05621e-05
-6.39678e-06
2.58854e-05
-1.23056e-05
3.57604e-05
-1.88307e-05
4.09967e-05
-2.54149e-05
4.24917e-05
-3.17006e-05
4.1002e-05
-3.74555e-05
3.70778e-05
-4.25078e-05
3.10821e-05
-4.6696e-05
2.32499e-05
-4.98312e-05
1.37649e-05
-5.16722e-05
2.84504e-06
-5.1918e-05
-9.16637e-06
-5.02263e-05
-2.16992e-05
-4.62753e-05
-3.38503e-05
-3.9889e-05
-4.42938e-05
-3.12371e-05
-5.1266e-05
-2.10841e-05
-5.27301e-05
-1.09776e-05
-4.68498e-05
-3.16153e-06
-3.2839e-05
-1.20235e-05
-2.05875e-06
1.26209e-05
-6.76518e-06
3.05918e-05
-1.28554e-05
4.18506e-05
-1.94265e-05
4.75677e-05
-2.59207e-05
4.89859e-05
-3.20307e-05
4.71121e-05
-3.76001e-05
4.26472e-05
-4.25413e-05
3.60234e-05
-4.67742e-05
2.74827e-05
-5.01773e-05
1.7168e-05
-5.25508e-05
5.21848e-06
-5.35903e-05
-8.12687e-06
-5.28823e-05
-2.24071e-05
-4.9942e-05
-3.67906e-05
-4.43298e-05
-4.9906e-05
-3.58891e-05
-5.97067e-05
-2.51186e-05
-6.35006e-05
-1.35871e-05
-5.83812e-05
-4.0813e-06
-4.23448e-05
-1.61048e-05
-2.22978e-06
1.48507e-05
-7.1735e-06
3.55355e-05
-1.3325e-05
4.80022e-05
-1.96869e-05
5.39296e-05
-2.5728e-05
5.5027e-05
-3.12302e-05
5.26143e-05
-3.61506e-05
4.75676e-05
-4.05209e-05
4.03937e-05
-4.43769e-05
3.13387e-05
-4.77043e-05
2.04955e-05
-5.03923e-05
7.90646e-06
-5.21891e-05
-6.33009e-06
-5.26662e-05
-2.19301e-05
-5.12121e-05
-3.82447e-05
-4.71052e-05
-5.40129e-05
-3.9745e-05
-6.70668e-05
-2.91289e-05
-7.41167e-05
-1.65614e-05
-7.09487e-05
-5.26043e-06
-5.36458e-05
-2.13653e-05
-2.522e-06
1.73727e-05
-7.77419e-06
4.07877e-05
-1.38562e-05
5.40842e-05
-1.9671e-05
5.97444e-05
-2.47711e-05
6.0127e-05
-2.90902e-05
5.69334e-05
-3.27488e-05
5.12262e-05
-3.59355e-05
4.35804e-05
-3.88342e-05
3.42374e-05
-4.15735e-05
2.32347e-05
-4.41788e-05
1.05118e-05
-4.65166e-05
-3.99224e-06
-4.82274e-05
-2.02193e-05
-4.86594e-05
-3.78127e-05
-4.68567e-05
-5.58156e-05
-4.1712e-05
-7.22115e-05
-3.24675e-05
-8.33612e-05
-1.97224e-05
-8.36937e-05
-6.7553e-06
-6.6613e-05
-2.81206e-05
-3.08958e-06
2.04623e-05
-8.81422e-06
4.65123e-05
-1.46399e-05
5.99099e-05
-1.94188e-05
6.45233e-05
-2.29087e-05
6.3617e-05
-2.52955e-05
5.93202e-05
-2.69269e-05
5.28576e-05
-2.81837e-05
4.48372e-05
-2.94187e-05
3.54725e-05
-3.0922e-05
2.47381e-05
-3.28868e-05
1.24765e-05
-3.53551e-05
-1.52394e-06
-3.81319e-05
-1.74425e-05
-4.06593e-05
-3.52853e-05
-4.1887e-05
-5.45879e-05
-4.02559e-05
-7.38426e-05
-3.4069e-05
-8.95481e-05
-2.26619e-05
-9.51009e-05
-8.61021e-06
-8.06646e-05
-3.67308e-05
-4.19964e-06
2.46619e-05
-1.06194e-05
5.29321e-05
-1.57932e-05
6.50836e-05
-1.87406e-05
6.74707e-05
-1.96682e-05
6.45445e-05
-1.9162e-05
5.8814e-05
-1.78665e-05
5.1562e-05
-1.63745e-05
4.33453e-05
-1.52016e-05
3.42995e-05
-1.47857e-05
2.43222e-05
-1.54827e-05
1.31735e-05
-1.75341e-05
5.27477e-07
-2.09852e-05
-1.39914e-05
-2.55264e-05
-3.07441e-05
-3.02471e-05
-4.98672e-05
-3.33734e-05
-7.07163e-05
-3.22928e-05
-9.06287e-05
-2.45456e-05
-0.000102848
-1.07832e-05
-9.44271e-05
-4.7514e-05
-6.24543e-06
3.09073e-05
-1.34025e-05
6.00892e-05
-1.69206e-05
6.86016e-05
-1.66344e-05
6.71845e-05
-1.36249e-05
6.15351e-05
-9.04985e-06
5.42389e-05
-3.88354e-06
4.63957e-05
1.10075e-06
3.8361e-05
5.28368e-06
3.01166e-05
8.1436e-06
2.14622e-05
9.22001e-06
1.20971e-05
8.10732e-06
1.64017e-06
4.50409e-06
-1.03882e-05
-1.64849e-06
-2.45915e-05
-9.86107e-06
-4.16546e-05
-1.85894e-05
-6.19881e-05
-2.47042e-05
-8.45139e-05
-2.37415e-05
-0.000103811
-1.29092e-05
-0.000105259
-6.04231e-05
-9.55901e-06
4.04663e-05
-1.64223e-05
6.69526e-05
-1.58169e-05
6.79962e-05
-9.88599e-06
6.12536e-05
-1.1242e-06
5.27733e-05
8.70329e-06
4.44115e-05
1.84166e-05
3.66824e-05
2.7219e-05
2.95586e-05
3.45337e-05
2.28019e-05
3.9886e-05
1.61099e-05
4.28261e-05
9.15701e-06
4.2886e-05
1.58027e-06
3.9578e-05
-7.08015e-06
3.2458e-05
-1.74715e-05
2.13698e-05
-3.05664e-05
7.04749e-06
-4.76658e-05
-7.76986e-06
-6.96965e-05
-1.72093e-05
-9.43714e-05
-1.37586e-05
-0.00010871
-7.41817e-05
-1.34265e-05
5.38929e-05
-1.50753e-05
6.86013e-05
-5.0932e-06
5.80142e-05
9.81262e-06
4.63478e-05
2.58401e-05
3.67458e-05
4.12056e-05
2.90459e-05
5.50294e-05
2.28587e-05
6.68475e-05
1.77405e-05
7.63716e-05
1.32777e-05
8.33507e-05
9.13085e-06
8.74904e-05
5.01729e-06
8.83989e-05
6.718e-07
8.55509e-05
-4.23217e-06
7.82406e-05
-1.01612e-05
6.56398e-05
-1.79655e-05
4.71688e-05
-2.91949e-05
2.37821e-05
-4.63098e-05
7.07257e-07
-7.12966e-05
-1.02155e-05
-9.77873e-05
-8.43972e-05
-9.40471e-06
6.32976e-05
8.82389e-06
5.03727e-05
3.5178e-05
3.16601e-05
6.00278e-05
2.1498e-05
8.14701e-05
1.53035e-05
9.94342e-05
1.10819e-05
0.000114179
8.11416e-06
0.000125987
5.93182e-06
0.000135065
4.2002e-06
0.000141496
2.69997e-06
0.000145229
1.28381e-06
0.000146059
-1.57697e-07
0.000143593
-1.76675e-06
0.000137132
-3.69964e-06
0.000125503
-6.33676e-06
0.000106858
-1.05499e-05
7.90481e-05
-1.84999e-05
4.22752e-05
-3.45237e-05
6.89272e-06
-6.24048e-05
-7.75045e-05
6.32976e-05
0.00011367
0.00014533
0.000166828
0.000182132
0.000193214
0.000201328
0.00020726
0.00021146
0.00021416
0.000215444
0.000215286
0.000213519
0.00020982
0.000203483
0.000192933
0.000174433
0.000139909
7.75045e-05
)
;

boundaryField
{
    movingWall
    {
        type            calculated;
        value           uniform 0;
    }
    fixedWalls
    {
        type            calculated;
        value           uniform 0;
    }
    frontAndBack
    {
        type            empty;
        value           nonuniform List<scalar> 0();
    }
}


// ************************************************************************* //
