/*--------------------------------*- C++ -*----------------------------------*\
  =========                 |
  \\      /  F ield         | OpenFOAM: The Open Source CFD Toolbox
   \\    /   O peration     | Website:  https://openfoam.org
    \\  /    A nd           | Version:  8
     \\/     M anipulation  |
\*---------------------------------------------------------------------------*/
FoamFile
{
    version     2.0;
    format      ascii;
    class       volVectorField;
    location    "1";
    object      U;
}
// * * * * * * * * * * * * * * * * * * * * * * * * * * * * * * * * * * * * * //

dimensions      [0 1 -1 0 0 0 0];

internalField   nonuniform List<vector> 
400
(
(0.0012046 -0.00120684 0)
(0.000402815 0.000673449 0)
(-0.00644942 0.00286731 0)
(-0.0179652 0.00434008 0)
(-0.0321694 0.00506871 0)
(-0.0472898 0.00518487 0)
(-0.0618218 0.00480541 0)
(-0.0744834 0.00400689 0)
(-0.0841612 0.00283702 0)
(-0.0898977 0.00134539 0)
(-0.0909507 -0.000383525 0)
(-0.0869147 -0.00220684 0)
(-0.0778727 -0.00391592 0)
(-0.0645308 -0.00525209 0)
(-0.0482818 -0.00594525 0)
(-0.0311452 -0.00577258 0)
(-0.0155448 -0.00462823 0)
(-0.00390928 -0.00259413 0)
(0.0018914 -8.67759e-05 0)
(0.00157691 0.00152417 0)
(-0.000622504 -0.000510873 0)
(-0.00896117 0.00883916 0)
(-0.0300505 0.0184008 0)
(-0.0603747 0.0249818 0)
(-0.0959649 0.0282346 0)
(-0.133148 0.0284651 0)
(-0.16851 0.0260698 0)
(-0.199002 0.0213947 0)
(-0.22197 0.0147483 0)
(-0.235218 0.00649822 0)
(-0.237157 -0.00281631 0)
(-0.227046 -0.0124076 0)
(-0.205265 -0.0212317 0)
(-0.173536 -0.0280725 0)
(-0.134993 -0.0317229 0)
(-0.0940048 -0.0312491 0)
(-0.0556613 -0.026301 0)
(-0.0249175 -0.0174104 0)
(-0.00569955 -0.00641458 0)
(0.000312342 0.00208237 0)
(-0.00307464 0.00649682 0)
(-0.0201015 0.0303269 0)
(-0.0555684 0.0520676 0)
(-0.102973 0.0668912 0)
(-0.156632 0.0739844 0)
(-0.211663 0.0737756 0)
(-0.263439 0.0670235 0)
(-0.307751 0.054523 0)
(-0.340936 0.0371042 0)
(-0.359991 0.0158012 0)
(-0.362778 -0.00794435 0)
(-0.34833 -0.0321487 0)
(-0.317176 -0.0542959 0)
(-0.27161 -0.0715387 0)
(-0.215791 -0.0811079 0)
(-0.15554 -0.0809065 0)
(-0.0976935 -0.0702027 0)
(-0.0490377 -0.0502714 0)
(-0.0155774 -0.0250281 0)
(-0.00167163 -0.00260537 0)
(-0.00527095 0.0195469 0)
(-0.0305631 0.0642246 0)
(-0.0798624 0.101409 0)
(-0.143228 0.125932 0)
(-0.213175 0.136996 0)
(-0.283847 0.13535 0)
(-0.349783 0.122232 0)
(-0.406024 0.0989914 0)
(-0.44825 0.0671177 0)
(-0.472889 0.0284865 0)
(-0.477351 -0.0143398 0)
(-0.460347 -0.0579166 0)
(-0.422277 -0.0979355 0)
(-0.365568 -0.12954 0)
(-0.294891 -0.147975 0)
(-0.217056 -0.149557 0)
(-0.140392 -0.132823 0)
(-0.0736073 -0.0995873 0)
(-0.0253359 -0.0557468 0)
(-0.00346056 -0.0125716 0)
(-0.00717166 0.0379617 0)
(-0.0400142 0.109514 0)
(-0.102228 0.165009 0)
(-0.180451 0.200169 0)
(-0.26539 0.214936 0)
(-0.350338 0.210768 0)
(-0.429236 0.18957 0)
(-0.496647 0.153344 0)
(-0.547822 0.104287 0)
(-0.578755 0.0451493 0)
(-0.586381 -0.0203502 0)
(-0.568907 -0.0872377 0)
(-0.526251 -0.149267 0)
(-0.460523 -0.199298 0)
(-0.376442 -0.23015 0)
(-0.281494 -0.235954 0)
(-0.185479 -0.213855 0)
(-0.0993959 -0.16562 0)
(-0.035227 -0.0987513 0)
(-0.00510943 -0.0275205 0)
(-0.00883453 0.0611481 0)
(-0.0484884 0.165291 0)
(-0.122524 0.241914 0)
(-0.214392 0.288625 0)
(-0.313102 0.306854 0)
(-0.411221 0.299238 0)
(-0.502286 0.268602 0)
(-0.5806 0.21769 0)
(-0.641166 0.149394 0)
(-0.679634 0.0672525 0)
(-0.692415 -0.0239722 0)
(-0.676996 -0.117864 0)
(-0.632433 -0.206215 0)
(-0.560014 -0.279367 0)
(-0.463983 -0.327179 0)
(-0.352117 -0.340753 0)
(-0.235636 -0.314797 0)
(-0.128254 -0.250075 0)
(-0.0461978 -0.155169 0)
(-0.00687215 -0.0476189 0)
(-0.0102997 0.0885825 0)
(-0.0560301 0.230551 0)
(-0.140665 0.330939 0)
(-0.244764 0.390084 0)
(-0.355814 0.41163 0)
(-0.465819 0.399903 0)
(-0.568125 0.358925 0)
(-0.656999 0.29227 0)
(-0.727396 0.203447 0)
(-0.77474 0.0965931 0)
(-0.794914 -0.0227489 0)
(-0.784513 -0.146977 0)
(-0.741363 -0.266058 0)
(-0.665373 -0.367678 0)
(-0.559637 -0.438171 0)
(-0.431602 -0.464529 0)
(-0.293595 -0.437539 0)
(-0.162341 -0.355458 0)
(-0.0594021 -0.227088 0)
(-0.0090466 -0.0736542 0)
(-0.0115869 0.11977 0)
(-0.0626485 0.304202 0)
(-0.156514 0.43066 0)
(-0.271114 0.502964 0)
(-0.392601 0.527706 0)
(-0.512628 0.511439 0)
(-0.624605 0.45969 0)
(-0.723042 0.37694 0)
(-0.803115 0.267199 0)
(-0.860241 0.13492 0)
(-0.88989 -0.0139818 0)
(-0.887712 -0.171164 0)
(-0.85003 -0.325131 0)
(-0.7748 -0.460988 0)
(-0.663125 -0.561084 0)
(-0.521129 -0.607087 0)
(-0.36145 -0.583885 0)
(-0.203729 -0.484938 0)
(-0.0760678 -0.317636 0)
(-0.0119609 -0.10709 0)
(-0.0127165 0.15422 0)
(-0.0683715 0.385082 0)
(-0.169955 0.53939 0)
(-0.292902 0.625201 0)
(-0.422208 0.65284 0)
(-0.549422 0.63169 0)
(-0.668341 0.569127 0)
(-0.774087 0.470633 0)
(-0.862435 0.340584 0)
(-0.929151 0.183403 0)
(-0.969593 0.00485461 0)
(-0.978635 -0.186629 0)
(-0.951011 -0.378743 0)
(-0.882269 -0.554451 0)
(-0.770563 -0.691987 0)
(-0.619295 -0.766565 0)
(-0.439893 -0.754769 0)
(-0.254062 -0.641887 0)
(-0.0974551 -0.43088 0)
(-0.0159972 -0.150095 0)
(-0.0137563 0.191487 0)
(-0.0733895 0.472004 0)
(-0.181113 0.655157 0)
(-0.309767 0.754084 0)
(-0.443314 0.783794 0)
(-0.573517 0.757215 0)
(-0.694985 0.683982 0)
(-0.80392 0.570709 0)
(-0.897192 0.422013 0)
(-0.971443 0.241926 0)
(-1.02245 0.035471 0)
(-1.04476 -0.189657 0)
(-1.03177 -0.42133 0)
(-0.976451 -0.64132 0)
(-0.87314 -0.824239 0)
(-0.720795 -0.938206 0)
(-0.52724 -0.948956 0)
(-0.314124 -0.828973 0)
(-0.124843 -0.571516 0)
(-0.021643 -0.205588 0)
(-0.0149018 0.231315 0)
(-0.0782942 0.563946 0)
(-0.190712 0.77574 0)
(-0.321906 0.8861 0)
(-0.454905 0.91601 0)
(-0.582144 0.88284 0)
(-0.699615 0.79897 0)
(-0.805188 0.672308 0)
(-0.89744 0.507634 0)
(-0.974551 0.308271 0)
(-1.03345 0.0779099 0)
(-1.06915 -0.177405 0)
(-1.07443 -0.447005 0)
(-1.03998 -0.713025 0)
(-0.955883 -0.947885 0)
(-0.814916 -1.11301 0)
(-0.618099 -1.16127 0)
(-0.383141 -1.04666 0)
(-0.159482 -0.744278 0)
(-0.0295721 -0.27733 0)
(-0.0166121 0.273983 0)
(-0.0844362 0.660425 0)
(-0.200522 0.898782 0)
(-0.330473 1.01677 0)
(-0.456579 1.04328 0)
(-0.572717 1.00123 0)
(-0.677063 0.906286 0)
(-0.769878 0.767813 0)
(-0.852121 0.590699 0)
(-0.924234 0.377333 0)
(-0.985161 0.1296 0)
(-1.03145 -0.148969 0)
(-1.05639 -0.45059 0)
(-1.04948 -0.75986 0)
(-0.996893 -1.04957 0)
(-0.884073 -1.27656 0)
(-0.701683 -1.38044 0)
(-0.457648 -1.291 0)
(-0.202413 -0.952854 0)
(-0.0407556 -0.370075 0)
(-0.0198506 0.320942 0)
(-0.0944423 0.762067 0)
(-0.213812 1.02185 0)
(-0.337732 1.14036 0)
(-0.448407 1.15728 0)
(-0.542544 1.10246 0)
(-0.62168 0.995257 0)
(-0.689319 0.846537 0)
(-0.749464 0.66122 0)
(-0.805457 0.440622 0)
(-0.859054 0.184563 0)
(-0.909428 -0.106536 0)
(-0.95194 -0.429057 0)
(-0.97669 -0.772409 0)
(-0.967517 -1.11338 0)
(-0.902757 -1.40853 0)
(-0.759865 -1.58693 0)
(-0.529718 -1.55048 0)
(-0.253959 -1.19794 0)
(-0.0565825 -0.489763 0)
(-0.0265027 0.375966 0)
(-0.112898 0.87125 0)
(-0.235462 1.1421 0)
(-0.346271 1.24902 0)
(-0.429427 1.2468 0)
(-0.486992 1.17349 0)
(-0.52554 1.05214 0)
(-0.552757 0.894798 0)
(-0.576185 0.706159 0)
(-0.602402 0.48637 0)
(-0.636409 0.233189 0)
(-0.680838 -0.05621 0)
(-0.734601 -0.383097 0)
(-0.790752 -0.743703 0)
(-0.833775 -1.12293 0)
(-0.837345 -1.4836 0)
(-0.765193 -1.75142 0)
(-0.584267 -1.80216 0)
(-0.312379 -1.47372 0)
(-0.0788362 -0.643445 0)
(-0.0400024 0.447025 0)
(-0.146897 0.992342 0)
(-0.27063 1.2548 0)
(-0.355512 1.33097 0)
(-0.392778 1.29629 0)
(-0.39413 1.19745 0)
(-0.373286 1.06017 0)
(-0.342866 0.896599 0)
(-0.313995 0.710512 0)
(-0.296207 0.500712 0)
(-0.297491 0.263131 0)
(-0.324022 -0.0078481 0)
(-0.37914 -0.318149 0)
(-0.461069 -0.671677 0)
(-0.558929 -1.06488 0)
(-0.646955 -1.4746 0)
(-0.678984 -1.83533 0)
(-0.594943 -2.00789 0)
(-0.370461 -1.76225 0)
(-0.108892 -0.838319 0)
(-0.0657078 0.549419 0)
(-0.204727 1.13002 0)
(-0.318324 1.34887 0)
(-0.351019 1.36645 0)
(-0.313247 1.28353 0)
(-0.232414 1.1531 0)
(-0.130993 1.00043 0)
(-0.026274 0.835482 0)
(0.068066 0.659817 0)
(0.14083 0.470511 0)
(0.182334 0.262042 0)
(0.183883 0.0270042 0)
(0.138084 -0.243768 0)
(0.0404515 -0.560761 0)
(-0.106569 -0.933016 0)
(-0.285239 -1.35791 0)
(-0.449386 -1.79449 0)
(-0.517686 -2.11238 0)
(-0.407699 -2.02647 0)
(-0.14419 -1.08055 0)
(-0.108528 0.71205 0)
(-0.286029 1.2806 0)
(-0.348904 1.39339 0)
(-0.276059 1.31786 0)
(-0.11972 1.17495 0)
(0.0729682 1.01412 0)
(0.272875 0.853797 0)
(0.461209 0.698021 0)
(0.624856 0.544445 0)
(0.753729 0.388013 0)
(0.838876 0.222281 0)
(0.871271 0.0394571 0)
(0.841332 -0.170467 0)
(0.739225 -0.421181 0)
(0.557248 -0.731192 0)
(0.297741 -1.11983 0)
(-0.00903105 -1.58533 0)
(-0.281492 -2.04277 0)
(-0.375985 -2.20008 0)
(-0.16775 -1.37344 0)
(-0.155396 0.978314 0)
(-0.340021 1.40024 0)
(-0.237041 1.30624 0)
(0.0335062 1.11458 0)
(0.355049 0.923609 0)
(0.674784 0.75418 0)
(0.969733 0.608543 0)
(1.228 0.481799 0)
(1.44278 0.367018 0)
(1.60914 0.257431 0)
(1.72195 0.146681 0)
(1.77457 0.0282087 0)
(1.75807 -0.106067 0)
(1.66023 -0.268148 0)
(1.46519 -0.478129 0)
(1.15669 -0.768757 0)
(0.731081 -1.18046 0)
(0.22812 -1.71304 0)
(-0.173243 -2.15904 0)
(-0.11889 -1.67463 0)
(-0.0475144 1.26929 0)
(-0.0719779 1.31667 0)
(0.411474 0.968823 0)
(0.958181 0.709446 0)
(1.42944 0.529263 0)
(1.82302 0.398357 0)
(2.14908 0.301088 0)
(2.41395 0.226091 0)
(2.62242 0.164549 0)
(2.77751 0.110084 0)
(2.87971 0.0579839 0)
(2.92655 0.0042714 0)
(2.91233 -0.0552941 0)
(2.82657 -0.127342 0)
(2.65143 -0.224355 0)
(2.35802 -0.373232 0)
(1.90148 -0.630291 0)
(1.22431 -1.07903 0)
(0.452727 -1.68824 0)
(0.217445 -1.70148 0)
(1.43807 0.707103 0)
(1.83547 0.626492 0)
(2.56303 0.39822 0)
(3.13704 0.251627 0)
(3.51139 0.164227 0)
(3.76854 0.109409 0)
(3.95608 0.0739869 0)
(4.09442 0.0502264 0)
(4.19454 0.033113 0)
(4.26289 0.0195169 0)
(4.30255 0.0074892 0)
(4.31402 -0.00430777 0)
(4.29546 -0.0169529 0)
(4.24209 -0.0321687 0)
(4.14412 -0.0531712 0)
(3.9804 -0.0879699 0)
(3.70171 -0.158336 0)
(3.17371 -0.316116 0)
(2.29906 -0.622654 0)
(1.66793 -0.779726 0)
)
;

boundaryField
{
    movingWall
    {
        type            fixedValue;
        value           uniform (5.07317 0 0);
    }
    fixedWalls
    {
        type            noSlip;
    }
    frontAndBack
    {
        type            empty;
    }
}


// ************************************************************************* //
