/*--------------------------------*- C++ -*----------------------------------*\
  =========                 |
  \\      /  F ield         | OpenFOAM: The Open Source CFD Toolbox
   \\    /   O peration     | Website:  https://openfoam.org
    \\  /    A nd           | Version:  9
     \\/     M anipulation  |
\*---------------------------------------------------------------------------*/
FoamFile
{
    format      ascii;
    class       volVectorField;
    location    "0.01";
    object      U;
}
// * * * * * * * * * * * * * * * * * * * * * * * * * * * * * * * * * * * * * //

dimensions      [0 1 -1 0 0 0 0];

internalField   nonuniform List<vector> 
40
(
(-0.0215974 0.000460767 0)
(-0.021639 7.60004e-06 0)
(-0.0204883 -0.000416142 0)
(-0.0182497 -0.000795802 0)
(-0.0655211 0.000825332 0)
(-0.0639551 -0.00137073 0)
(-0.0597873 -0.00348003 0)
(-0.053186 -0.0054207 0)
(-0.102332 -0.000299479 0)
(-0.0988781 -0.00554144 0)
(-0.0919904 -0.010585 0)
(-0.0819072 -0.0152285 0)
(-0.127202 -0.00262073 0)
(-0.122647 -0.0116287 0)
(-0.114104 -0.0203386 0)
(-0.101807 -0.0283391 0)
(-0.146995 -0.00538361 0)
(-0.141871 -0.0186778 0)
(-0.132228 -0.0315682 0)
(-0.118309 -0.0433608 0)
(-0.166791 -0.00833089 0)
(-0.161296 -0.0264392 0)
(-0.150734 -0.0439583 0)
(-0.135367 -0.0601723 0)
(-0.189175 -0.0114113 0)
(-0.183422 -0.0347634 0)
(-0.172079 -0.0574727 0)
(-0.155186 -0.0786307 0)
(-0.215661 -0.0143358 0)
(-0.20954 -0.043682 0)
(-0.197453 -0.0722029 0)
(-0.179074 -0.0989659 0)
(-0.246768 -0.0171744 0)
(-0.24055 -0.0530328 0)
(-0.227675 -0.0880904 0)
(-0.207894 -0.121456 0)
(-0.282249 -0.0201607 0)
(-0.276142 -0.0626189 0)
(-0.262978 -0.104932 0)
(-0.242158 -0.145767 0)
)
;

boundaryField
{
    movingWall
    {
        type            fixedValue;
        value           nonuniform List<vector> 0();
    }
    fixedWalls
    {
        type            noSlip;
    }
    frontAndBack
    {
        type            empty;
    }
    procBoundary5to2
    {
        type            processor;
        value           nonuniform List<vector> 8((-0.00171111 7.49339e-05 0) (-0.00541261 0.000247011 0) (-0.00858492 0.000399173 0) (-0.0107117 0.000512362 0) (-0.0123778 0.000633897 0) (-0.0140252 0.000784836 0) (-0.0158883 0.000968445 0) (-0.0180825 0.00119706 0));
    }
    procBoundary5to3
    {
        type            processor;
        value           nonuniform List<vector> 2((-0.0206727 0.00146197 0) (-0.0236301 0.00174654 0));
    }
    procBoundary5to6
    {
        type            processor;
        value           nonuniform List<vector> 4((-0.0268687 -0.00207684 0) (-0.026339 -0.00621501 0) (-0.0252187 -0.0103567 0) (-0.0234176 -0.0144353 0));
    }
    procBoundary5to7
    {
        type            processor;
        value           nonuniform List<vector> 6((-0.00124781 -9.83754e-05 0) (-0.00371803 -0.000597918 0) (-0.00577757 -0.00160871 0) (-0.00721424 -0.0029392 0) (-0.00841433 -0.00446244 0) (-0.00965198 -0.00617372 0));
    }
    procBoundary5to8
    {
        type            processor;
        value           nonuniform List<vector> 4((-0.0111128 -0.00808749 0) (-0.0128794 -0.0102394 0) (-0.0150613 -0.0126565 0) (-0.0177075 -0.0153361 0));
    }
}


// ************************************************************************* //
