/*--------------------------------*- C++ -*----------------------------------*\
| =========                 |                                                 |
| \\      /  F ield         | OpenFOAM: The Open Source CFD Toolbox           |
|  \\    /   O peration     | Version:  2212                                  |
|   \\  /    A nd           | Website:  www.openfoam.com                      |
|    \\/     M anipulation  |                                                 |
\*---------------------------------------------------------------------------*/
FoamFile
{
    version     2.0;
    format      ascii;
    arch        "LSB;label=32;scalar=64";
    class       volVectorField;
    location    "0.1";
    object      U;
}
// * * * * * * * * * * * * * * * * * * * * * * * * * * * * * * * * * * * * * //

dimensions      [0 1 -1 0 0 0 0];

internalField   nonuniform List<vector> 
400
(
(0.000341698 0 0)
(0.00101585 0 0)
(0.0016627 0 0)
(0.00226539 0 0)
(0.00280887 0 0)
(0.00328027 0 0)
(0.00366913 0 0)
(0.00396739 0 0)
(0.00416928 0 0)
(0.00427108 0 0)
(0.00427101 0 0)
(0.00416906 0 0)
(0.00396704 0 0)
(0.00366867 0 0)
(0.00327973 0 0)
(0.00280829 0 0)
(0.00226482 0 0)
(0.0016622 0 0)
(0.00101548 0 0)
(0.000341551 0 0)
(0.00104706 0 0)
(0.00311271 0 0)
(0.00509436 0 0)
(0.00694022 0 0)
(0.00860411 0 0)
(0.0100468 0 0)
(0.0112363 0 0)
(0.0121485 0 0)
(0.0127657 0 0)
(0.0130769 0 0)
(0.0130767 0 0)
(0.012765 0 0)
(0.0121475 0 0)
(0.011235 0 0)
(0.0100452 0 0)
(0.00860248 0 0)
(0.00693862 0 0)
(0.00509296 0 0)
(0.0031117 0 0)
(0.00104666 0 0)
(0.00181913 0 0)
(0.00540747 0 0)
(0.00884859 0 0)
(0.012052 0 0)
(0.0149375 0 0)
(0.0174373 0 0)
(0.0194969 0 0)
(0.021075 0 0)
(0.0221422 0 0)
(0.0226801 0 0)
(0.0226798 0 0)
(0.0221413 0 0)
(0.0210734 0 0)
(0.0194949 0 0)
(0.017435 0 0)
(0.014935 0 0)
(0.0120496 0 0)
(0.00884649 0 0)
(0.00540597 0 0)
(0.00181854 0 0)
(0.00270504 0 0)
(0.00803982 0 0)
(0.0131527 0 0)
(0.0179079 0 0)
(0.0221863 0 0)
(0.0258879 0 0)
(0.0289339 0 0)
(0.0312651 0 0)
(0.0328404 0 0)
(0.0336339 0 0)
(0.0336335 0 0)
(0.0328392 0 0)
(0.0312632 0 0)
(0.0289314 0 0)
(0.025885 0 0)
(0.0221831 0 0)
(0.0179049 0 0)
(0.0131501 0 0)
(0.00803796 0 0)
(0.00270432 0 0)
(0.00375601 0 0)
(0.0111613 0 0)
(0.0182524 0 0)
(0.0248388 0 0)
(0.0307548 0 0)
(0.0358642 0 0)
(0.0400609 0 0)
(0.0432677 0 0)
(0.0454319 0 0)
(0.0465213 0 0)
(0.0465208 0 0)
(0.0454305 0 0)
(0.0432656 0 0)
(0.0400581 0 0)
(0.0358609 0 0)
(0.0307514 0 0)
(0.0248355 0 0)
(0.0182495 0 0)
(0.0111592 0 0)
(0.0037552 0 0)
(0.00502927 0 0)
(0.0149408 0 0)
(0.0244207 0 0)
(0.03321 0 0)
(0.0410867 0 0)
(0.0478726 0 0)
(0.053433 0 0)
(0.0576726 0 0)
(0.0605289 0 0)
(0.0619652 0 0)
(0.0619647 0 0)
(0.0605275 0 0)
(0.0576703 0 0)
(0.05343 0 0)
(0.0478692 0 0)
(0.041083 0 0)
(0.0332064 0 0)
(0.0244177 0 0)
(0.0149386 0 0)
(0.00502841 0 0)
(0.00659046 0 0)
(0.0195716 0 0)
(0.0319678 0 0)
(0.0434327 0 0)
(0.0536764 0 0)
(0.0624725 0 0)
(0.0696569 0 0)
(0.0751192 0 0)
(0.0787911 0 0)
(0.080635 0 0)
(0.0806345 0 0)
(0.0787897 0 0)
(0.0751169 0 0)
(0.069654 0 0)
(0.0624691 0 0)
(0.0536728 0 0)
(0.0434292 0 0)
(0.0319648 0 0)
(0.0195695 0 0)
(0.0065896 0 0)
(0.00851694 0 0)
(0.0252802 0 0)
(0.0412538 0 0)
(0.0559793 0 0)
(0.0690836 0 0)
(0.0802877 0 0)
(0.0894004 0 0)
(0.0963032 0 0)
(0.10093 0 0)
(0.103249 0 0)
(0.103249 0 0)
(0.100929 0 0)
(0.0963011 0 0)
(0.0893977 0 0)
(0.0802845 0 0)
(0.0690803 0 0)
(0.0559761 0 0)
(0.041251 0 0)
(0.0252781 0 0)
(0.00851611 0 0)
(0.0109025 0 0)
(0.0323394 0 0)
(0.0527076 0 0)
(0.0714025 0 0)
(0.087951 0 0)
(0.10202 0 0)
(0.1134 0 0)
(0.121979 0 0)
(0.127709 0 0)
(0.130574 0 0)
(0.130574 0 0)
(0.127708 0 0)
(0.121978 0 0)
(0.113398 0 0)
(0.102017 0 0)
(0.087948 0 0)
(0.0713996 0 0)
(0.0527051 0 0)
(0.0323375 0 0)
(0.0109017 0 0)
(0.0138649 0 0)
(0.0410889 0 0)
(0.0668539 0 0)
(0.0903631 0 0)
(0.111026 0 0)
(0.128463 0 0)
(0.142468 0 0)
(0.152961 0 0)
(0.159936 0 0)
(0.163414 0 0)
(0.163414 0 0)
(0.159935 0 0)
(0.15296 0 0)
(0.142466 0 0)
(0.128461 0 0)
(0.111024 0 0)
(0.0903607 0 0)
(0.0668518 0 0)
(0.0410873 0 0)
(0.0138643 0 0)
(0.0175589 0 0)
(0.0519688 0 0)
(0.0843569 0 0)
(0.113672 0 0)
(0.139195 0 0)
(0.160523 0 0)
(0.177496 0 0)
(0.190114 0 0)
(0.198451 0 0)
(0.202593 0 0)
(0.202593 0 0)
(0.19845 0 0)
(0.190113 0 0)
(0.177494 0 0)
(0.160521 0 0)
(0.139194 0 0)
(0.11367 0 0)
(0.0843554 0 0)
(0.0519676 0 0)
(0.0175584 0 0)
(0.0221984 0 0)
(0.0655776 0 0)
(0.106092 0 0)
(0.142355 0 0)
(0.173525 0 0)
(0.199237 0 0)
(0.219457 0 0)
(0.234339 0 0)
(0.244099 0 0)
(0.248926 0 0)
(0.248925 0 0)
(0.244099 0 0)
(0.234338 0 0)
(0.219456 0 0)
(0.199236 0 0)
(0.173525 0 0)
(0.142354 0 0)
(0.106091 0 0)
(0.0655768 0 0)
(0.022198 0 0)
(0.0280989 0 0)
(0.0827762 0 0)
(0.133266 0 0)
(0.177753 0 0)
(0.21533 0 0)
(0.245799 0 0)
(0.269397 0 0)
(0.286549 0 0)
(0.297692 0 0)
(0.303172 0 0)
(0.303172 0 0)
(0.297692 0 0)
(0.286549 0 0)
(0.269397 0 0)
(0.245799 0 0)
(0.215329 0 0)
(0.177753 0 0)
(0.133266 0 0)
(0.0827759 0 0)
(0.0280987 0 0)
(0.0357624 0 0)
(0.104884 0 0)
(0.167627 0 0)
(0.221675 0 0)
(0.266247 0 0)
(0.301582 0 0)
(0.328416 0 0)
(0.347615 0 0)
(0.359948 0 0)
(0.36597 0 0)
(0.36597 0 0)
(0.359948 0 0)
(0.347616 0 0)
(0.328417 0 0)
(0.301582 0 0)
(0.266248 0 0)
(0.221675 0 0)
(0.167627 0 0)
(0.104884 0 0)
(0.0357624 0 0)
(0.0460632 0 0)
(0.134065 0 0)
(0.211824 0 0)
(0.276628 0 0)
(0.328334 0 0)
(0.368126 0 0)
(0.397605 0 0)
(0.418293 0 0)
(0.431402 0 0)
(0.437751 0 0)
(0.437751 0 0)
(0.431403 0 0)
(0.418294 0 0)
(0.397606 0 0)
(0.368127 0 0)
(0.328336 0 0)
(0.276629 0 0)
(0.211825 0 0)
(0.134066 0 0)
(0.0460633 0 0)
(0.0607047 0 0)
(0.174135 0 0)
(0.270031 0 0)
(0.346121 0 0)
(0.404128 0 0)
(0.447078 0 0)
(0.477934 0 0)
(0.499095 0 0)
(0.512292 0 0)
(0.518625 0 0)
(0.518625 0 0)
(0.512293 0 0)
(0.499096 0 0)
(0.477935 0 0)
(0.447079 0 0)
(0.40413 0 0)
(0.346123 0 0)
(0.270032 0 0)
(0.174136 0 0)
(0.0607049 0 0)
(0.0835165 0 0)
(0.232309 0 0)
(0.348976 0 0)
(0.434971 0 0)
(0.496561 0 0)
(0.539973 0 0)
(0.570031 0 0)
(0.590107 0 0)
(0.602408 0 0)
(0.608253 0 0)
(0.608253 0 0)
(0.602409 0 0)
(0.590108 0 0)
(0.570033 0 0)
(0.539975 0 0)
(0.496562 0 0)
(0.434973 0 0)
(0.348978 0 0)
(0.23231 0 0)
(0.0835169 0 0)
(0.124728 0 0)
(0.323077 0 0)
(0.459365 0 0)
(0.549278 0 0)
(0.608477 0 0)
(0.647753 0 0)
(0.673824 0 0)
(0.69075 0 0)
(0.700935 0 0)
(0.705726 0 0)
(0.705726 0 0)
(0.700936 0 0)
(0.690751 0 0)
(0.673825 0 0)
(0.647755 0 0)
(0.608479 0 0)
(0.549279 0 0)
(0.459367 0 0)
(0.323078 0 0)
(0.124728 0 0)
(0.217163 0 0)
(0.476259 0 0)
(0.616708 0 0)
(0.695084 0 0)
(0.741296 0 0)
(0.769881 0 0)
(0.788044 0 0)
(0.799521 0 0)
(0.806317 0 0)
(0.809486 0 0)
(0.809486 0 0)
(0.806318 0 0)
(0.799522 0 0)
(0.788045 0 0)
(0.769882 0 0)
(0.741297 0 0)
(0.695085 0 0)
(0.616709 0 0)
(0.47626 0 0)
(0.217163 0 0)
(0.484901 0 0)
(0.748305 0 0)
(0.836479 0 0)
(0.873541 0 0)
(0.892346 0 0)
(0.903138 0 0)
(0.909742 0 0)
(0.913833 0 0)
(0.916229 0 0)
(0.917341 0 0)
(0.917341 0 0)
(0.91623 0 0)
(0.913833 0 0)
(0.909742 0 0)
(0.903139 0 0)
(0.892347 0 0)
(0.873542 0 0)
(0.83648 0 0)
(0.748306 0 0)
(0.484901 0 0)
)
;

boundaryField
{
    movingWall
    {
        type            fixedValue;
        value           uniform (0.971981 0 0);
    }
    fixedWalls
    {
        type            noSlip;
    }
    frontAndBack
    {
        type            empty;
    }
}


// ************************************************************************* //
