/*--------------------------------*- C++ -*----------------------------------*\
  =========                 |
  \\      /  F ield         | OpenFOAM: The Open Source CFD Toolbox
   \\    /   O peration     | Website:  https://openfoam.org
    \\  /    A nd           | Version:  9
     \\/     M anipulation  |
\*---------------------------------------------------------------------------*/
FoamFile
{
    format      ascii;
    class       volScalarField;
    location    "0.04";
    object      p;
}
// * * * * * * * * * * * * * * * * * * * * * * * * * * * * * * * * * * * * * //

dimensions      [0 2 -2 0 0 0 0];

internalField   nonuniform List<scalar> 
40
(
-0.132145
-0.200295
-0.281218
-0.362247
-0.422322
-0.131769
-0.220825
-0.312213
-0.408441
-0.493092
-0.564276
-0.632084
-0.0298937
-0.155409
-0.287684
-0.433713
-0.567499
-0.684756
-0.769814
0.158199
-0.0670333
-0.30928
-0.552172
-0.756858
-0.902466
-0.947261
0.211696
-0.228109
-0.578676
-0.821329
-0.987736
-1.10394
-1.05953
-0.0821968
-0.565233
-0.809285
-0.977937
-1.10592
-1.21552
-1.06938
)
;

boundaryField
{
    movingWall
    {
        type            zeroGradient;
    }
    fixedWalls
    {
        type            zeroGradient;
    }
    frontAndBack
    {
        type            empty;
    }
    procBoundary4to1
    {
        type            processor;
        value           nonuniform List<scalar> 6(-0.0315106 0.011043 0.0993299 0.308705 0.572968 0.504743);
    }
    procBoundary4to3
    {
        type            processor;
        value           nonuniform List<scalar> 8(-0.119214 -0.192991 -0.252457 -0.312444 -0.361871 -0.495509 -0.495509 -0.541778);
    }
    procBoundary4to6
    {
        type            processor;
        value           nonuniform List<scalar> 5(-0.688247 -0.846297 -1.01182 -1.11019 -1.11294);
    }
}


// ************************************************************************* //
