/*--------------------------------*- C++ -*----------------------------------*\
  =========                 |
  \\      /  F ield         | OpenFOAM: The Open Source CFD Toolbox
   \\    /   O peration     | Website:  https://openfoam.org
    \\  /    A nd           | Version:  9
     \\/     M anipulation  |
\*---------------------------------------------------------------------------*/
FoamFile
{
    format      ascii;
    class       volScalarField;
    location    "0.02";
    object      p;
}
// * * * * * * * * * * * * * * * * * * * * * * * * * * * * * * * * * * * * * //

dimensions      [0 2 -2 0 0 0 0];

internalField   nonuniform List<scalar> 
40
(
-0.1684
-0.160338
-0.146263
-0.139825
-0.25091
-0.233007
-0.220855
-0.19148
-0.157157
-0.133637
-0.302695
-0.278166
-0.245826
-0.202102
-0.150045
-0.10602
-0.333387
-0.285804
-0.235658
-0.177133
-0.117721
-0.0587334
-0.386324
-0.304478
-0.178338
-0.0651781
-0.0167426
0.0304224
-0.502947
-0.452718
-0.213562
0.0439727
0.216977
0.294283
-0.550859
-0.632076
-0.442848
-0.0895602
0.359835
0.620064
)
;

boundaryField
{
    movingWall
    {
        type            zeroGradient;
    }
    fixedWalls
    {
        type            zeroGradient;
    }
    frontAndBack
    {
        type            empty;
    }
    procBoundary9to6
    {
        type            processor;
        value           nonuniform List<scalar> 6(-0.273988 -0.32896 -0.382636 -0.458286 -0.551611 -0.571573);
    }
    procBoundary9to8
    {
        type            processor;
        value           nonuniform List<scalar> 7(-0.153323 -0.144193 -0.138284 -0.13734 -0.207533 -0.185422 -0.185422);
    }
}


// ************************************************************************* //
