/*--------------------------------*- C++ -*----------------------------------*\
  =========                 |
  \\      /  F ield         | OpenFOAM: The Open Source CFD Toolbox
   \\    /   O peration     | Website:  https://openfoam.org
    \\  /    A nd           | Version:  8
     \\/     M anipulation  |
\*---------------------------------------------------------------------------*/
FoamFile
{
    version     2.0;
    format      ascii;
    class       volScalarField;
    location    "1";
    object      p;
}
// * * * * * * * * * * * * * * * * * * * * * * * * * * * * * * * * * * * * * //

dimensions      [0 2 -2 0 0 0 0];

internalField   nonuniform List<scalar> 
400
(
-0.0991495
-0.198107
-0.251237
-0.276605
-0.280235
-0.268019
-0.243081
-0.206008
-0.159443
-0.106377
-0.0490441
0.0103733
0.0691091
0.124021
0.172237
0.211709
0.241443
0.261424
0.272433
0.276095
-0.198495
-0.238957
-0.268476
-0.283619
-0.282602
-0.267747
-0.241408
-0.204275
-0.158534
-0.106543
-0.0501188
0.00871633
0.0671821
0.122004
0.170116
0.209296
0.238477
0.257584
0.266981
0.266629
-0.250176
-0.268379
-0.28018
-0.284579
-0.277249
-0.259901
-0.233833
-0.198741
-0.156168
-0.107896
-0.0550699
0.000848637
0.0572754
0.110708
0.157599
0.195301
0.222633
0.239736
0.247177
0.245425
-0.273175
-0.280671
-0.280675
-0.276479
-0.263855
-0.244728
-0.219983
-0.188489
-0.151165
-0.109174
-0.0627521
-0.0124199
0.0397353
0.0900777
0.134508
0.169817
0.194571
0.209036
0.214124
0.210871
-0.277998
-0.279029
-0.271582
-0.26099
-0.244033
-0.223486
-0.200403
-0.173085
-0.141965
-0.107887
-0.0702972
-0.0285412
0.016213
0.0605829
0.10019
0.131438
0.15266
0.164033
0.166768
0.162299
-0.270311
-0.267605
-0.255698
-0.241019
-0.221085
-0.199711
-0.178613
-0.155725
-0.130976
-0.105411
-0.0782778
-0.0478003
-0.013739
0.0214685
0.0537414
0.0793883
0.0964663
0.104765
0.105737
0.100994
-0.255739
-0.251803
-0.238236
-0.222193
-0.201227
-0.179941
-0.16115
-0.142739
-0.123644
-0.105565
-0.0886899
-0.0707845
-0.0499341
-0.026754
-0.00409063
0.0148316
0.0277986
0.0337945
0.034215
0.0304974
-0.239612
-0.23677
-0.224479
-0.210269
-0.190964
-0.171242
-0.155293
-0.141904
-0.12785
-0.11517
-0.106324
-0.10003
-0.0930123
-0.083322
-0.0714663
-0.0594135
-0.0495502
-0.0442125
-0.0427431
-0.0444923
-0.224358
-0.22487
-0.216865
-0.208189
-0.194419
-0.17908
-0.167129
-0.160684
-0.152904
-0.144279
-0.14014
-0.142069
-0.146672
-0.149371
-0.147469
-0.140833
-0.131798
-0.124588
-0.120406
-0.120392
-0.208207
-0.213765
-0.212725
-0.2134
-0.210288
-0.204504
-0.198626
-0.202423
-0.205302
-0.2027
-0.201426
-0.207327
-0.218912
-0.230031
-0.234719
-0.230158
-0.218294
-0.205711
-0.197
-0.196578
-0.185023
-0.196164
-0.204619
-0.21838
-0.231691
-0.244055
-0.248019
-0.265373
-0.285233
-0.294887
-0.298807
-0.306519
-0.320194
-0.33413
-0.340209
-0.33297
-0.313514
-0.290839
-0.274506
-0.274296
-0.145642
-0.162222
-0.184301
-0.216101
-0.250904
-0.292995
-0.314328
-0.347497
-0.388418
-0.417429
-0.43257
-0.443875
-0.457106
-0.468964
-0.47131
-0.456883
-0.425105
-0.38632
-0.355808
-0.351778
-0.0812319
-0.104262
-0.148027
-0.207296
-0.266788
-0.347275
-0.398064
-0.450482
-0.5117
-0.562351
-0.593774
-0.61236
-0.624902
-0.631379
-0.626442
-0.60281
-0.556393
-0.495326
-0.438759
-0.418389
0.0129795
-0.0209339
-0.0965105
-0.197896
-0.285922
-0.39849
-0.487153
-0.567171
-0.649292
-0.72103
-0.771352
-0.799056
-0.807014
-0.800983
-0.783909
-0.7515
-0.693115
-0.607358
-0.50983
-0.452498
0.138385
0.0835501
-0.0259551
-0.174933
-0.303385
-0.425841
-0.541467
-0.657903
-0.774118
-0.877628
-0.957093
-0.999454
-0.983274
-0.941028
-0.896206
-0.85185
-0.787959
-0.68453
-0.53934
-0.425474
0.302151
0.209126
0.0778904
-0.0842689
-0.265838
-0.39728
-0.527515
-0.689655
-0.875101
-1.05182
-1.18669
-1.23985
-1.18243
-1.05122
-0.917492
-0.826026
-0.753333
-0.651548
-0.480103
-0.30981
0.524946
0.382512
0.239102
0.116613
-0.0926573
-0.292182
-0.515334
-0.782685
-1.07139
-1.33323
-1.51572
-1.57635
-1.49597
-1.26336
-0.95444
-0.668602
-0.482977
-0.389968
-0.26516
-0.0887175
0.83703
0.689852
0.54327
0.366609
0.0751607
-0.26988
-0.66514
-1.0672
-1.41569
-1.67826
-1.84417
-1.90794
-1.85904
-1.66433
-1.27363
-0.695092
-0.132008
0.200116
0.247561
0.314942
1.45392
1.25495
0.951307
0.481738
-0.106537
-0.645335
-1.0861
-1.44539
-1.7302
-1.94125
-2.08037
-2.1474
-2.13287
-2.00852
-1.71918
-1.17874
-0.310648
0.6044
1.10233
1.19892
2.09906
1.62234
0.829873
-0.00157842
-0.584848
-1.00246
-1.34139
-1.62716
-1.86003
-2.03783
-2.16042
-2.22653
-2.22766
-2.1434
-1.94073
-1.5746
-0.944164
0.126429
1.46112
2.18863
)
;

boundaryField
{
    movingWall
    {
        type            zeroGradient;
    }
    fixedWalls
    {
        type            zeroGradient;
    }
    frontAndBack
    {
        type            empty;
    }
}


// ************************************************************************* //
