/*--------------------------------*- C++ -*----------------------------------*\
  =========                 |
  \\      /  F ield         | OpenFOAM: The Open Source CFD Toolbox
   \\    /   O peration     | Website:  https://openfoam.org
    \\  /    A nd           | Version:  8
     \\/     M anipulation  |
\*---------------------------------------------------------------------------*/
FoamFile
{
    version     2.0;
    format      ascii;
    class       surfaceScalarField;
    location    "1";
    object      phi;
}
// * * * * * * * * * * * * * * * * * * * * * * * * * * * * * * * * * * * * * //

dimensions      [0 3 -1 0 0 0 0];

internalField   nonuniform List<scalar> 
760
(
6.40762e-08
-6.4046e-08
-1.33806e-07
1.97883e-07
-6.01199e-07
4.67396e-07
-1.24938e-06
6.48178e-07
-1.9856e-06
7.36224e-07
-2.72884e-06
7.43237e-07
-3.41021e-06
6.81367e-07
-3.97034e-06
5.60135e-07
-4.35758e-06
3.87236e-07
-4.52917e-06
1.71595e-07
-4.45591e-06
-7.32605e-08
-4.1291e-06
-3.26812e-07
-3.56788e-06
-5.61223e-07
-2.8244e-06
-7.4348e-07
-1.98407e-06
-8.40324e-07
-1.15859e-06
-8.25482e-07
-4.70499e-07
-6.88096e-07
-2.98413e-08
-4.40658e-07
1.02161e-07
-1.32e-07
1.02164e-07
-1.96157e-07
1.32102e-07
-9.65762e-07
9.67497e-07
-2.25597e-06
1.75761e-06
-3.90476e-06
2.29696e-06
-5.72612e-06
2.55759e-06
-7.5414e-06
2.55851e-06
-9.18914e-06
2.32911e-06
-1.05273e-05
1.89825e-06
-1.14346e-05
1.29455e-06
-1.18162e-05
5.53177e-07
-1.16133e-05
-2.76161e-07
-1.08162e-05
-1.12389e-06
-9.47689e-06
-1.90051e-06
-7.71649e-06
-2.50388e-06
-5.72275e-06
-2.83407e-06
-3.73329e-06
-2.81494e-06
-2.00204e-06
-2.41935e-06
-7.49973e-07
-1.69273e-06
-1.03255e-07
-7.78727e-07
-1.08811e-09
-5.05943e-07
6.3805e-07
-1.89168e-06
2.35324e-06
-3.96584e-06
3.83177e-06
-6.48807e-06
4.81919e-06
-9.20566e-06
5.27518e-06
-1.18765e-05
5.22939e-06
-1.42794e-05
4.73198e-06
-1.62181e-05
3.83689e-06
-1.75258e-05
2.6023e-06
-1.80738e-05
1.10118e-06
-1.77839e-05
-5.66054e-07
-1.66445e-05
-2.26332e-06
-1.47255e-05
-3.81945e-06
-1.21881e-05
-5.04136e-06
-9.28159e-06
-5.74054e-06
-6.32423e-06
-5.7723e-06
-3.66162e-06
-5.08196e-06
-1.60706e-06
-3.74729e-06
-3.71239e-07
-2.01455e-06
-3.72326e-07
-7.89151e-07
1.42721e-06
-2.7675e-06
4.33159e-06
-5.58566e-06
6.64993e-06
-8.90955e-06
8.14307e-06
-1.24239e-05
8.78952e-06
-1.58389e-05
8.64444e-06
-1.88934e-05
7.78642e-06
-2.13559e-05
6.29941e-06
-2.30293e-05
4.27566e-06
-2.37591e-05
1.83098e-06
-2.34477e-05
-8.77412e-07
-2.20722e-05
-3.63882e-06
-1.97025e-05
-6.18916e-06
-1.65155e-05
-8.22831e-06
-1.27981e-05
-9.45796e-06
-8.93088e-06
-9.63955e-06
-5.34729e-06
-8.66554e-06
-2.46847e-06
-6.62611e-06
-6.26033e-07
-3.85699e-06
-9.98358e-07
-1.04145e-06
2.46866e-06
-3.56862e-06
6.85875e-06
-7.08066e-06
1.0162e-05
-1.11467e-05
1.22091e-05
-1.53914e-05
1.30342e-05
-1.94866e-05
1.27397e-05
-2.31438e-05
1.14435e-05
-2.6109e-05
9.26462e-06
-2.81635e-05
6.33018e-06
-2.91302e-05
2.79768e-06
-2.88869e-05
-1.12064e-06
-2.7386e-05
-5.13975e-06
-2.46772e-05
-8.898e-06
-2.09303e-05
-1.19752e-05
-1.64498e-05
-1.39384e-05
-1.16704e-05
-1.44189e-05
-7.12234e-06
-1.32137e-05
-3.3616e-06
-1.03868e-05
-8.768e-07
-6.34178e-06
-1.87516e-06
-1.26635e-06
3.73501e-06
-4.29279e-06
9.88519e-06
-8.44115e-06
1.43103e-05
-1.31889e-05
1.69568e-05
-1.81059e-05
1.79513e-05
-2.28339e-05
1.74676e-05
-2.70671e-05
1.56768e-05
-3.05394e-05
1.27369e-05
-3.30172e-05
8.80797e-06
-3.43017e-05
4.08215e-06
-3.42397e-05
-1.18269e-06
-3.27437e-05
-6.63569e-06
-2.98213e-05
-1.18204e-05
-2.56093e-05
-1.61872e-05
-2.0407e-05
-1.91407e-05
-1.46921e-05
-2.01339e-05
-9.1009e-06
-1.88048e-05
-4.35714e-06
-1.51306e-05
-1.15145e-06
-9.54747e-06
-3.02661e-06
-1.46617e-06
5.20118e-06
-4.93928e-06
1.33583e-05
-9.65802e-06
1.90291e-05
-1.50166e-05
2.23154e-05
-2.05381e-05
2.34728e-05
-2.58434e-05
2.2773e-05
-3.06211e-05
2.04545e-05
-3.46029e-05
1.67187e-05
-3.75484e-05
1.17535e-05
-3.92401e-05
5.7739e-06
-3.94895e-05
-9.33285e-07
-3.81561e-05
-7.96912e-06
-3.51817e-05
-1.47948e-05
-3.06395e-05
-2.07294e-05
-2.47905e-05
-2.49897e-05
-1.81319e-05
-2.67924e-05
-1.14065e-05
-2.55303e-05
-5.53872e-06
-2.09984e-05
-1.48232e-06
-1.36039e-05
-4.50892e-06
-1.64158e-06
6.84276e-06
-5.50513e-06
1.72219e-05
-1.07167e-05
2.42407e-05
-1.65955e-05
2.81942e-05
-2.26273e-05
2.95046e-05
-2.84241e-05
2.85698e-05
-3.36819e-05
2.57123e-05
-3.81441e-05
2.11809e-05
-4.1576e-05
1.51853e-05
-4.37496e-05
7.94752e-06
-4.44428e-05
-2.40146e-07
-4.34538e-05
-8.95812e-06
-4.0638e-05
-1.76106e-05
-3.5969e-05
-2.53984e-05
-2.96236e-05
-3.13352e-05
-2.20732e-05
-3.43427e-05
-1.41451e-05
-3.34585e-05
-6.98989e-06
-2.81535e-05
-1.90341e-06
-1.86904e-05
-6.41233e-06
-1.79336e-06
8.63612e-06
-5.98831e-06
2.14168e-05
-1.16013e-05
2.98537e-05
-1.78812e-05
3.44741e-05
-2.42867e-05
3.59101e-05
-3.04358e-05
3.47188e-05
-3.60489e-05
3.13254e-05
-4.08999e-05
2.6032e-05
-4.4778e-05
1.90634e-05
-4.74614e-05
1.06309e-05
-4.8706e-05
1.00451e-06
-4.82516e-05
-9.41253e-06
-4.58534e-05
-2.00088e-05
-4.13503e-05
-2.99015e-05
-3.4775e-05
-3.79105e-05
-2.65001e-05
-4.26176e-05
-1.73778e-05
-4.25808e-05
-8.78498e-06
-3.67464e-05
-2.45035e-06
-2.5025e-05
-8.86268e-06
-1.92679e-06
1.05629e-05
-6.39716e-06
2.58872e-05
-1.23064e-05
3.57629e-05
-1.88318e-05
4.09995e-05
-2.54164e-05
4.24947e-05
-3.17026e-05
4.1005e-05
-3.74579e-05
3.70807e-05
-4.25107e-05
3.10847e-05
-4.66994e-05
2.3252e-05
-4.98349e-05
1.37665e-05
-5.16762e-05
2.84582e-06
-5.19222e-05
-9.16653e-06
-5.02306e-05
-2.17004e-05
-4.62794e-05
-3.38527e-05
-3.98926e-05
-4.42973e-05
-3.124e-05
-5.12702e-05
-2.10861e-05
-5.27347e-05
-1.09786e-05
-4.68539e-05
-3.16182e-06
-3.28418e-05
-1.20245e-05
-2.05886e-06
1.26218e-05
-6.76554e-06
3.05939e-05
-1.28561e-05
4.18534e-05
-1.94275e-05
4.7571e-05
-2.59221e-05
4.89893e-05
-3.20326e-05
4.71155e-05
-3.76024e-05
4.26505e-05
-4.25441e-05
3.60264e-05
-4.67774e-05
2.74853e-05
-5.01809e-05
1.717e-05
-5.25547e-05
5.21964e-06
-5.35945e-05
-8.12673e-06
-5.28867e-05
-2.24082e-05
-4.99463e-05
-3.6793e-05
-4.43338e-05
-4.99098e-05
-3.58924e-05
-5.97116e-05
-2.5121e-05
-6.35061e-05
-1.35885e-05
-5.83864e-05
-4.0817e-06
-4.23486e-05
-1.61062e-05
-2.22988e-06
1.48517e-05
-7.17383e-06
3.55378e-05
-1.33257e-05
4.80053e-05
-1.96879e-05
5.39332e-05
-2.57293e-05
5.50307e-05
-3.12319e-05
5.26181e-05
-3.61526e-05
4.75712e-05
-4.05233e-05
4.03971e-05
-4.43797e-05
3.13417e-05
-4.77075e-05
2.04978e-05
-5.03958e-05
7.908e-06
-5.2193e-05
-6.3296e-06
-5.26704e-05
-2.19309e-05
-5.12164e-05
-3.8247e-05
-4.71094e-05
-5.40168e-05
-3.97488e-05
-6.70722e-05
-2.91318e-05
-7.41231e-05
-1.65631e-05
-7.0955e-05
-5.26096e-06
-5.36507e-05
-2.13672e-05
-2.52209e-06
1.73737e-05
-7.77448e-06
4.07902e-05
-1.38567e-05
5.40875e-05
-1.96718e-05
5.97482e-05
-2.47721e-05
6.0131e-05
-2.90915e-05
5.69375e-05
-3.27504e-05
5.12301e-05
-3.59373e-05
4.35841e-05
-3.88364e-05
3.42407e-05
-4.1576e-05
2.32374e-05
-4.41816e-05
1.05137e-05
-4.65199e-05
-3.99138e-06
-4.8231e-05
-2.02198e-05
-4.86633e-05
-3.78147e-05
-4.68607e-05
-5.58193e-05
-4.17158e-05
-7.22171e-05
-3.24707e-05
-8.33683e-05
-1.97244e-05
-8.37012e-05
-6.756e-06
-6.66192e-05
-2.81232e-05
-3.08969e-06
2.04634e-05
-8.81452e-06
4.6515e-05
-1.46404e-05
5.99134e-05
-1.94195e-05
6.45273e-05
-2.29096e-05
6.36211e-05
-2.52965e-05
5.93244e-05
-2.6928e-05
5.28616e-05
-2.8185e-05
4.4841e-05
-2.94201e-05
3.54759e-05
-3.09236e-05
2.47409e-05
-3.28886e-05
1.24787e-05
-3.53572e-05
-1.52277e-06
-3.81345e-05
-1.74425e-05
-4.06622e-05
-3.52869e-05
-4.18903e-05
-5.45913e-05
-4.02594e-05
-7.3848e-05
-3.40722e-05
-8.95554e-05
-2.26641e-05
-9.51093e-05
-8.61111e-06
-8.06722e-05
-3.67343e-05
-4.1998e-06
2.46632e-05
-1.06198e-05
5.29351e-05
-1.57938e-05
6.50874e-05
-1.87413e-05
6.74749e-05
-1.96689e-05
6.45487e-05
-1.91627e-05
5.88182e-05
-1.78671e-05
5.1566e-05
-1.63751e-05
4.3349e-05
-1.52021e-05
3.43029e-05
-1.47861e-05
2.4325e-05
-1.54832e-05
1.31757e-05
-1.75348e-05
5.28804e-07
-2.09862e-05
-1.39912e-05
-2.55278e-05
-3.07453e-05
-3.0249e-05
-4.98701e-05
-3.33758e-05
-7.07212e-05
-3.22955e-05
-9.06358e-05
-2.45479e-05
-0.000102857
-1.07843e-05
-9.44358e-05
-4.75186e-05
-6.24572e-06
3.09089e-05
-1.34032e-05
6.00925e-05
-1.69213e-05
6.86055e-05
-1.66351e-05
6.71886e-05
-1.36255e-05
6.15391e-05
-9.05019e-06
5.42428e-05
-3.88357e-06
4.63994e-05
1.10106e-06
3.83643e-05
5.28433e-06
3.01196e-05
8.14454e-06
2.14648e-05
9.22115e-06
1.20991e-05
8.10852e-06
1.64143e-06
4.50516e-06
-1.03878e-05
-1.6478e-06
-2.45923e-05
-9.86104e-06
-4.16568e-05
-1.85902e-05
-6.19921e-05
-2.47058e-05
-8.45201e-05
-2.37434e-05
-0.000103819
-1.29104e-05
-0.000105269
-6.0429e-05
-9.55956e-06
4.04685e-05
-1.64233e-05
6.69563e-05
-1.5818e-05
6.80002e-05
-9.88679e-06
6.12575e-05
-1.12453e-06
5.27768e-05
8.70353e-06
4.44148e-05
1.84175e-05
3.66854e-05
2.72205e-05
2.95613e-05
3.45359e-05
2.28043e-05
3.98888e-05
1.61119e-05
4.28294e-05
9.15853e-06
4.28896e-05
1.58124e-06
3.95816e-05
-7.07985e-06
3.24613e-05
-1.7472e-05
2.13725e-05
-3.05679e-05
7.04908e-06
-4.76687e-05
-7.76966e-06
-6.97014e-05
-1.72102e-05
-9.43787e-05
-1.37597e-05
-0.000108719
-7.41886e-05
-1.34275e-05
5.3896e-05
-1.50766e-05
6.86054e-05
-5.09414e-06
5.80177e-05
9.81245e-06
4.63509e-05
2.58409e-05
3.67484e-05
4.12074e-05
2.90482e-05
5.50322e-05
2.28607e-05
6.68512e-05
1.77422e-05
7.63763e-05
1.32792e-05
8.33562e-05
9.13203e-06
8.74966e-05
5.01817e-06
8.84055e-05
6.72326e-07
8.55577e-05
-4.23205e-06
7.82472e-05
-1.01616e-05
6.56458e-05
-1.79665e-05
4.71737e-05
-2.91966e-05
2.37851e-05
-4.63128e-05
7.08148e-07
-7.13018e-05
-1.0216e-05
-9.77953e-05
-8.44046e-05
-9.40582e-06
6.33019e-05
8.82364e-06
5.03759e-05
3.51792e-05
3.16621e-05
6.00306e-05
2.14995e-05
8.14744e-05
1.53047e-05
9.94398e-05
1.10828e-05
0.000114185
8.11493e-06
0.000125995
5.93244e-06
0.000135074
4.2007e-06
0.000141505
2.70035e-06
0.00014524
1.28406e-06
0.000146069
-1.57569e-07
0.000143604
-1.76679e-06
0.000137142
-3.69984e-06
0.000125513
-6.33715e-06
0.000106867
-1.05505e-05
7.90552e-05
-1.8501e-05
4.22796e-05
-3.45261e-05
6.89393e-06
-6.24096e-05
-7.75107e-05
6.33019e-05
0.000113678
0.00014534
0.000166839
0.000182144
0.000193227
0.000201342
0.000207274
0.000211475
0.000214175
0.000215459
0.000215302
0.000213535
0.000209835
0.000203498
0.000192947
0.000174446
0.00013992
7.75107e-05
)
;

boundaryField
{
    movingWall
    {
        type            calculated;
        value           uniform 0;
    }
    fixedWalls
    {
        type            calculated;
        value           uniform 0;
    }
    frontAndBack
    {
        type            empty;
        value           nonuniform List<scalar> 0();
    }
}


// ************************************************************************* //
