/*--------------------------------*- C++ -*----------------------------------*\
  =========                 |
  \\      /  F ield         | OpenFOAM: The Open Source CFD Toolbox
   \\    /   O peration     | Website:  https://openfoam.org
    \\  /    A nd           | Version:  8
     \\/     M anipulation  |
\*---------------------------------------------------------------------------*/
FoamFile
{
    version     2.0;
    format      ascii;
    class       volVectorField;
    location    "1";
    object      U;
}
// * * * * * * * * * * * * * * * * * * * * * * * * * * * * * * * * * * * * * //

dimensions      [0 1 -1 0 0 0 0];

internalField   nonuniform List<vector> 
400
(
(0.00120468 -0.00120677 0)
(0.000402931 0.000673502 0)
(-0.00644941 0.00286735 0)
(-0.0179653 0.00434011 0)
(-0.0321695 0.00506874 0)
(-0.0472901 0.0051849 0)
(-0.0618222 0.00480544 0)
(-0.0744839 0.00400691 0)
(-0.0841617 0.00283704 0)
(-0.0898982 0.0013454 0)
(-0.0909512 -0.000383524 0)
(-0.0869152 -0.00220685 0)
(-0.0778732 -0.00391594 0)
(-0.0645312 -0.00525212 0)
(-0.048282 -0.00594529 0)
(-0.0311454 -0.00577261 0)
(-0.0155449 -0.00462826 0)
(-0.00390929 -0.00259414 0)
(0.00189142 -8.67744e-05 0)
(0.00157692 0.00152418 0)
(-0.000622461 -0.000510758 0)
(-0.00896114 0.0088393 0)
(-0.0300506 0.018401 0)
(-0.060375 0.0249819 0)
(-0.0959654 0.0282348 0)
(-0.133148 0.0284653 0)
(-0.168511 0.02607 0)
(-0.199003 0.0213948 0)
(-0.221971 0.0147484 0)
(-0.235219 0.00649827 0)
(-0.237158 -0.00281631 0)
(-0.227047 -0.0124076 0)
(-0.205266 -0.0212318 0)
(-0.173537 -0.0280727 0)
(-0.134994 -0.0317231 0)
(-0.0940053 -0.0312493 0)
(-0.0556616 -0.0263012 0)
(-0.0249176 -0.0174105 0)
(-0.00569956 -0.0064146 0)
(0.000312349 0.00208239 0)
(-0.00307464 0.00649691 0)
(-0.0201016 0.0303271 0)
(-0.0555687 0.052068 0)
(-0.102973 0.0668916 0)
(-0.156633 0.0739849 0)
(-0.211664 0.073776 0)
(-0.26344 0.0670239 0)
(-0.307752 0.0545233 0)
(-0.340938 0.0371045 0)
(-0.359993 0.0158013 0)
(-0.36278 -0.00794438 0)
(-0.348332 -0.0321489 0)
(-0.317177 -0.0542963 0)
(-0.271612 -0.0715391 0)
(-0.215793 -0.0811085 0)
(-0.155541 -0.080907 0)
(-0.097694 -0.0702031 0)
(-0.049038 -0.0502717 0)
(-0.0155775 -0.0250283 0)
(-0.00167164 -0.00260537 0)
(-0.00527098 0.0195471 0)
(-0.0305633 0.064225 0)
(-0.0798628 0.10141 0)
(-0.143228 0.125933 0)
(-0.213176 0.136997 0)
(-0.283849 0.135351 0)
(-0.349785 0.122233 0)
(-0.406027 0.098992 0)
(-0.448252 0.0671181 0)
(-0.472892 0.0284867 0)
(-0.477354 -0.0143399 0)
(-0.46035 -0.0579169 0)
(-0.422279 -0.0979361 0)
(-0.365571 -0.129541 0)
(-0.294893 -0.147976 0)
(-0.217057 -0.149558 0)
(-0.140392 -0.132824 0)
(-0.0736077 -0.0995878 0)
(-0.025336 -0.0557471 0)
(-0.00346058 -0.0125716 0)
(-0.0071717 0.037962 0)
(-0.0400145 0.109515 0)
(-0.102229 0.16501 0)
(-0.180452 0.20017 0)
(-0.265392 0.214937 0)
(-0.35034 0.210769 0)
(-0.429239 0.189571 0)
(-0.49665 0.153345 0)
(-0.547825 0.104288 0)
(-0.578758 0.0451497 0)
(-0.586384 -0.0203503 0)
(-0.56891 -0.0872382 0)
(-0.526254 -0.149268 0)
(-0.460526 -0.1993 0)
(-0.376445 -0.230151 0)
(-0.281496 -0.235956 0)
(-0.18548 -0.213856 0)
(-0.0993964 -0.165621 0)
(-0.0352272 -0.0987518 0)
(-0.00510945 -0.0275206 0)
(-0.00883458 0.0611485 0)
(-0.0484887 0.165292 0)
(-0.122525 0.241915 0)
(-0.214394 0.288627 0)
(-0.313104 0.306856 0)
(-0.411223 0.29924 0)
(-0.502289 0.268603 0)
(-0.580603 0.217691 0)
(-0.64117 0.149395 0)
(-0.679638 0.067253 0)
(-0.69242 -0.0239722 0)
(-0.677 -0.117864 0)
(-0.632437 -0.206216 0)
(-0.560017 -0.279369 0)
(-0.463986 -0.327181 0)
(-0.35212 -0.340755 0)
(-0.235638 -0.314799 0)
(-0.128255 -0.250076 0)
(-0.046198 -0.15517 0)
(-0.00687218 -0.0476191 0)
(-0.0102998 0.0885831 0)
(-0.0560304 0.230552 0)
(-0.140666 0.330941 0)
(-0.244766 0.390087 0)
(-0.355816 0.411633 0)
(-0.465821 0.399905 0)
(-0.568129 0.358928 0)
(-0.657003 0.292272 0)
(-0.7274 0.203448 0)
(-0.774744 0.0965938 0)
(-0.794919 -0.0227489 0)
(-0.784517 -0.146977 0)
(-0.741368 -0.26606 0)
(-0.665377 -0.36768 0)
(-0.559641 -0.438174 0)
(-0.431605 -0.464532 0)
(-0.293597 -0.437541 0)
(-0.162342 -0.355461 0)
(-0.0594024 -0.22709 0)
(-0.00904664 -0.0736545 0)
(-0.011587 0.11977 0)
(-0.0626488 0.304204 0)
(-0.156515 0.430662 0)
(-0.271115 0.502967 0)
(-0.392603 0.527709 0)
(-0.512631 0.511442 0)
(-0.624608 0.459693 0)
(-0.723045 0.376943 0)
(-0.80312 0.267201 0)
(-0.860246 0.134921 0)
(-0.889895 -0.0139816 0)
(-0.887718 -0.171164 0)
(-0.850035 -0.325132 0)
(-0.774805 -0.46099 0)
(-0.663129 -0.561088 0)
(-0.521132 -0.607091 0)
(-0.361452 -0.583888 0)
(-0.20373 -0.484941 0)
(-0.0760683 -0.317638 0)
(-0.011961 -0.10709 0)
(-0.0127166 0.154221 0)
(-0.0683718 0.385084 0)
(-0.169956 0.539393 0)
(-0.292903 0.625205 0)
(-0.42221 0.652844 0)
(-0.549425 0.631693 0)
(-0.668344 0.56913 0)
(-0.774092 0.470636 0)
(-0.86244 0.340587 0)
(-0.929156 0.183404 0)
(-0.969598 0.00485511 0)
(-0.978641 -0.186629 0)
(-0.951017 -0.378745 0)
(-0.882274 -0.554454 0)
(-0.770568 -0.691991 0)
(-0.619299 -0.76657 0)
(-0.439896 -0.754774 0)
(-0.254064 -0.641892 0)
(-0.0974558 -0.430882 0)
(-0.0159973 -0.150095 0)
(-0.0137564 0.191488 0)
(-0.0733898 0.472006 0)
(-0.181114 0.65516 0)
(-0.309769 0.754088 0)
(-0.443316 0.783798 0)
(-0.57352 0.757219 0)
(-0.694988 0.683986 0)
(-0.803924 0.570712 0)
(-0.897197 0.422016 0)
(-0.971448 0.241928 0)
(-1.02245 0.0354719 0)
(-1.04476 -0.189658 0)
(-1.03178 -0.421332 0)
(-0.976458 -0.641323 0)
(-0.873146 -0.824244 0)
(-0.7208 -0.938212 0)
(-0.527244 -0.948962 0)
(-0.314127 -0.828979 0)
(-0.124844 -0.57152 0)
(-0.0216432 -0.205589 0)
(-0.0149018 0.231317 0)
(-0.0782945 0.563949 0)
(-0.190712 0.775744 0)
(-0.321907 0.886105 0)
(-0.454906 0.916015 0)
(-0.582147 0.882844 0)
(-0.699618 0.798974 0)
(-0.805192 0.672313 0)
(-0.897445 0.507638 0)
(-0.974556 0.308274 0)
(-1.03345 0.0779114 0)
(-1.06916 -0.177405 0)
(-1.07444 -0.447007 0)
(-1.03999 -0.713029 0)
(-0.95589 -0.947891 0)
(-0.814922 -1.11302 0)
(-0.618104 -1.16128 0)
(-0.383144 -1.04667 0)
(-0.159483 -0.744283 0)
(-0.0295723 -0.277331 0)
(-0.0166121 0.273984 0)
(-0.0844365 0.660429 0)
(-0.200522 0.898786 0)
(-0.330474 1.01678 0)
(-0.456581 1.04328 0)
(-0.572719 1.00124 0)
(-0.677066 0.906291 0)
(-0.769882 0.767818 0)
(-0.852125 0.590704 0)
(-0.924239 0.377337 0)
(-0.985166 0.129602 0)
(-1.03145 -0.148969 0)
(-1.05639 -0.450591 0)
(-1.04949 -0.759864 0)
(-0.996899 -1.04958 0)
(-0.884079 -1.27657 0)
(-0.701689 -1.38045 0)
(-0.457652 -1.29101 0)
(-0.202415 -0.95286 0)
(-0.0407559 -0.370077 0)
(-0.0198506 0.320944 0)
(-0.0944426 0.762071 0)
(-0.213812 1.02185 0)
(-0.337733 1.14037 0)
(-0.448409 1.15728 0)
(-0.542546 1.10247 0)
(-0.621682 0.995263 0)
(-0.689322 0.846542 0)
(-0.749467 0.661224 0)
(-0.805461 0.440626 0)
(-0.859058 0.184566 0)
(-0.909433 -0.106535 0)
(-0.951945 -0.429058 0)
(-0.976696 -0.772413 0)
(-0.967524 -1.11338 0)
(-0.902763 -1.40854 0)
(-0.759871 -1.58694 0)
(-0.529722 -1.55049 0)
(-0.253961 -1.19795 0)
(-0.056583 -0.489766 0)
(-0.0265028 0.375967 0)
(-0.112898 0.871254 0)
(-0.235462 1.14211 0)
(-0.346272 1.24903 0)
(-0.429428 1.2468 0)
(-0.486994 1.17349 0)
(-0.525542 1.05214 0)
(-0.552759 0.894804 0)
(-0.576188 0.706164 0)
(-0.602405 0.486374 0)
(-0.636412 0.233192 0)
(-0.680841 -0.0562083 0)
(-0.734605 -0.383098 0)
(-0.790756 -0.743706 0)
(-0.83378 -1.12293 0)
(-0.837351 -1.48361 0)
(-0.765198 -1.75143 0)
(-0.584272 -1.80217 0)
(-0.312381 -1.47373 0)
(-0.0788368 -0.64345 0)
(-0.0400025 0.447027 0)
(-0.146898 0.992347 0)
(-0.270631 1.2548 0)
(-0.355513 1.33098 0)
(-0.392779 1.2963 0)
(-0.394131 1.19746 0)
(-0.373287 1.06018 0)
(-0.342867 0.896605 0)
(-0.313996 0.710517 0)
(-0.296209 0.500716 0)
(-0.297492 0.263135 0)
(-0.324023 -0.00784598 0)
(-0.379142 -0.318149 0)
(-0.461071 -0.671679 0)
(-0.558932 -1.06489 0)
(-0.646959 -1.47461 0)
(-0.678989 -1.83535 0)
(-0.594947 -2.0079 0)
(-0.370464 -1.76227 0)
(-0.108893 -0.838325 0)
(-0.0657081 0.549422 0)
(-0.204728 1.13002 0)
(-0.318326 1.34888 0)
(-0.351021 1.36645 0)
(-0.313248 1.28354 0)
(-0.232415 1.1531 0)
(-0.130993 1.00044 0)
(-0.0262741 0.835487 0)
(0.0680664 0.659822 0)
(0.140831 0.470516 0)
(0.182335 0.262045 0)
(0.183884 0.0270064 0)
(0.138085 -0.243768 0)
(0.0404526 -0.560763 0)
(-0.106568 -0.93302 0)
(-0.28524 -1.35792 0)
(-0.449388 -1.7945 0)
(-0.51769 -2.1124 0)
(-0.407702 -2.02648 0)
(-0.144191 -1.08056 0)
(-0.108529 0.712053 0)
(-0.286031 1.2806 0)
(-0.348906 1.3934 0)
(-0.276061 1.31786 0)
(-0.119721 1.17495 0)
(0.0729678 1.01413 0)
(0.272876 0.853802 0)
(0.46121 0.698025 0)
(0.624859 0.544449 0)
(0.753733 0.388017 0)
(0.83888 0.222284 0)
(0.871276 0.039459 0)
(0.841337 -0.170466 0)
(0.739231 -0.421181 0)
(0.557253 -0.731195 0)
(0.297744 -1.11984 0)
(-0.00902969 -1.58534 0)
(-0.281493 -2.04278 0)
(-0.375987 -2.2001 0)
(-0.167751 -1.37345 0)
(-0.155397 0.978318 0)
(-0.340024 1.40025 0)
(-0.237043 1.30625 0)
(0.0335051 1.11459 0)
(0.35505 0.923614 0)
(0.674786 0.754184 0)
(0.969736 0.608547 0)
(1.22801 0.481802 0)
(1.44279 0.367021 0)
(1.60915 0.257433 0)
(1.72196 0.146683 0)
(1.77458 0.02821 0)
(1.75808 -0.106066 0)
(1.66024 -0.268148 0)
(1.4652 -0.478131 0)
(1.1567 -0.768761 0)
(0.731087 -1.18047 0)
(0.228124 -1.71305 0)
(-0.173244 -2.15906 0)
(-0.11889 -1.67465 0)
(-0.0475152 1.2693 0)
(-0.0719793 1.31668 0)
(0.411474 0.968828 0)
(0.958184 0.70945 0)
(1.42945 0.529266 0)
(1.82303 0.39836 0)
(2.14909 0.30109 0)
(2.41397 0.226092 0)
(2.62244 0.164551 0)
(2.77753 0.110085 0)
(2.87973 0.0579848 0)
(2.92657 0.00427188 0)
(2.91235 -0.0552941 0)
(2.82658 -0.127342 0)
(2.65144 -0.224356 0)
(2.35804 -0.373234 0)
(1.9015 -0.630294 0)
(1.22432 -1.07904 0)
(0.452732 -1.68825 0)
(0.217448 -1.70149 0)
(1.43808 0.707107 0)
(1.83548 0.626495 0)
(2.56304 0.398223 0)
(3.13705 0.251629 0)
(3.5114 0.164228 0)
(3.76856 0.109409 0)
(3.9561 0.0739875 0)
(4.09444 0.0502268 0)
(4.19457 0.0331134 0)
(4.26292 0.0195171 0)
(4.30257 0.00748935 0)
(4.31404 -0.00430772 0)
(4.29548 -0.016953 0)
(4.24212 -0.0321689 0)
(4.14415 -0.0531715 0)
(3.98043 -0.0879704 0)
(3.70173 -0.158337 0)
(3.17373 -0.316118 0)
(2.29908 -0.622657 0)
(1.66794 -0.77973 0)
)
;

boundaryField
{
    movingWall
    {
        type            fixedValue;
        value           uniform (5.0732 0 0);
    }
    fixedWalls
    {
        type            noSlip;
    }
    frontAndBack
    {
        type            empty;
    }
}


// ************************************************************************* //
