/*--------------------------------*- C++ -*----------------------------------*\
  =========                 |
  \\      /  F ield         | OpenFOAM: The Open Source CFD Toolbox
   \\    /   O peration     | Website:  https://openfoam.org
    \\  /    A nd           | Version:  9
     \\/     M anipulation  |
\*---------------------------------------------------------------------------*/
FoamFile
{
    format      ascii;
    class       volScalarField;
    location    "0.03";
    object      p;
}
// * * * * * * * * * * * * * * * * * * * * * * * * * * * * * * * * * * * * * //

dimensions      [0 2 -2 0 0 0 0];

internalField   nonuniform List<scalar> 
40
(
-0.0841948
-0.0821547
-0.0773657
-0.0756858
-0.0740372
-0.077624
-0.0774235
-0.0737672
-0.0740752
-0.0817011
-0.0707893
-0.071015
-0.069179
-0.0603379
-0.0617528
-0.0650311
-0.0424076
-0.0466678
-0.0600505
-0.0129424
-0.0250607
-0.0594127
0.0323007
0.004196
-0.0577901
0.0969195
0.0438064
-0.0339559
0.184541
0.100464
0.0262974
0.318448
0.234999
0.187733
0.64855
0.552923
0.401004
1.02457
0.719242
0.353867
)
;

boundaryField
{
    movingWall
    {
        type            zeroGradient;
    }
    fixedWalls
    {
        type            zeroGradient;
    }
    frontAndBack
    {
        type            empty;
    }
    procBoundary1to0
    {
        type            processor;
        value           nonuniform List<scalar> 5(-0.0927913 -0.0899152 -0.0855684 -0.082485 -0.0824249);
    }
    procBoundary1to3
    {
        type            processor;
        value           nonuniform List<scalar> 8(-0.0885837 -0.0825023 -0.0973546 -0.095365 -0.0825023 -0.0967962 -0.112094 -0.115851);
    }
    procBoundary1to4
    {
        type            processor;
        value           nonuniform List<scalar> 6(-0.134653 -0.147912 -0.0748811 0.0669964 0.104866 -0.120147);
    }
}


// ************************************************************************* //
