/*--------------------------------*- C++ -*----------------------------------*\
| =========                 |                                                 |
| \\      /  F ield         | OpenFOAM: The Open Source CFD Toolbox           |
|  \\    /   O peration     | Version:  2212                                  |
|   \\  /    A nd           | Website:  www.openfoam.com                      |
|    \\/     M anipulation  |                                                 |
\*---------------------------------------------------------------------------*/
FoamFile
{
    version     2.0;
    format      ascii;
    arch        "LSB;label=32;scalar=64";
    class       volVectorField;
    location    "0.4";
    object      U;
}
// * * * * * * * * * * * * * * * * * * * * * * * * * * * * * * * * * * * * * //

dimensions      [0 1 -1 0 0 0 0];

internalField   nonuniform List<vector> 
400
(
(0.000664384 0 0)
(0.00197594 0 0)
(0.0032365 0 0)
(0.00441409 0 0)
(0.00547948 0 0)
(0.00640697 0 0)
(0.0071749 0 0)
(0.00776591 0 0)
(0.00816704 0 0)
(0.00836973 0 0)
(0.0083697 0 0)
(0.00816695 0 0)
(0.00776576 0 0)
(0.0071747 0 0)
(0.00640673 0 0)
(0.00547922 0 0)
(0.00441382 0 0)
(0.00323625 0 0)
(0.00197574 0 0)
(0.000664294 0 0)
(0.00201044 0 0)
(0.00597907 0 0)
(0.00979296 0 0)
(0.0133552 0 0)
(0.0165772 0 0)
(0.0193815 0 0)
(0.0217028 0 0)
(0.0234889 0 0)
(0.024701 0 0)
(0.0253133 0 0)
(0.0253132 0 0)
(0.0247007 0 0)
(0.0234885 0 0)
(0.0217023 0 0)
(0.0193809 0 0)
(0.0165765 0 0)
(0.0133545 0 0)
(0.0097923 0 0)
(0.00597855 0 0)
(0.00201021 0 0)
(0.003409 0 0)
(0.0101378 0 0)
(0.0166027 0 0)
(0.0226386 0 0)
(0.0280956 0 0)
(0.0328425 0 0)
(0.0367697 0 0)
(0.03979 0 0)
(0.041839 0 0)
(0.0428739 0 0)
(0.0428738 0 0)
(0.0418386 0 0)
(0.0397895 0 0)
(0.0367689 0 0)
(0.0328416 0 0)
(0.0280946 0 0)
(0.0226377 0 0)
(0.0166018 0 0)
(0.0101371 0 0)
(0.00340869 0 0)
(0.00489719 0 0)
(0.0145622 0 0)
(0.0238443 0 0)
(0.032505 0 0)
(0.0403288 0 0)
(0.0471288 0 0)
(0.0527498 0 0)
(0.0570697 0 0)
(0.0599983 0 0)
(0.0614771 0 0)
(0.061477 0 0)
(0.0599979 0 0)
(0.057069 0 0)
(0.052749 0 0)
(0.0471278 0 0)
(0.0403277 0 0)
(0.0325039 0 0)
(0.0238432 0 0)
(0.0145613 0 0)
(0.00489684 0 0)
(0.0065155 0 0)
(0.0193716 0 0)
(0.031711 0 0)
(0.0432136 0 0)
(0.0535926 0 0)
(0.062602 0 0)
(0.0700401 0 0)
(0.07575 0 0)
(0.0796178 0 0)
(0.0815697 0 0)
(0.0815695 0 0)
(0.0796174 0 0)
(0.0757493 0 0)
(0.0700392 0 0)
(0.0626009 0 0)
(0.0535915 0 0)
(0.0432124 0 0)
(0.0317099 0 0)
(0.0193708 0 0)
(0.00651513 0 0)
(0.00830956 0 0)
(0.0247007 0 0)
(0.0404194 0 0)
(0.0550525 0 0)
(0.0682344 0 0)
(0.0796563 0 0)
(0.0890695 0 0)
(0.0962844 0 0)
(0.101166 0 0)
(0.103627 0 0)
(0.103627 0 0)
(0.101165 0 0)
(0.0962837 0 0)
(0.0890686 0 0)
(0.0796552 0 0)
(0.0682333 0 0)
(0.0550514 0 0)
(0.0404183 0 0)
(0.0246999 0 0)
(0.00830918 0 0)
(0.0103326 0 0)
(0.0307057 0 0)
(0.0502189 0 0)
(0.0683505 0 0)
(0.0846461 0 0)
(0.0987307 0 0)
(0.11031 0 0)
(0.119166 0 0)
(0.125148 0 0)
(0.128162 0 0)
(0.128161 0 0)
(0.125148 0 0)
(0.119166 0 0)
(0.110309 0 0)
(0.0987298 0 0)
(0.0846451 0 0)
(0.0683495 0 0)
(0.050218 0 0)
(0.0307049 0 0)
(0.0103323 0 0)
(0.012649 0 0)
(0.0375744 0 0)
(0.0614066 0 0)
(0.0834932 0 0)
(0.10328 0 0)
(0.120323 0 0)
(0.134288 0 0)
(0.144939 0 0)
(0.152116 0 0)
(0.155726 0 0)
(0.155726 0 0)
(0.152116 0 0)
(0.144938 0 0)
(0.134288 0 0)
(0.120322 0 0)
(0.103279 0 0)
(0.0834924 0 0)
(0.0614058 0 0)
(0.0375737 0 0)
(0.0126487 0 0)
(0.0153393 0 0)
(0.0455404 0 0)
(0.0743468 0 0)
(0.100946 0 0)
(0.124669 0 0)
(0.145007 0 0)
(0.161598 0 0)
(0.174201 0 0)
(0.182668 0 0)
(0.18692 0 0)
(0.18692 0 0)
(0.182668 0 0)
(0.1742 0 0)
(0.161597 0 0)
(0.145007 0 0)
(0.124668 0 0)
(0.100945 0 0)
(0.0743462 0 0)
(0.0455398 0 0)
(0.0153391 0 0)
(0.0185087 0 0)
(0.0549054 0 0)
(0.089502 0 0)
(0.121283 0 0)
(0.149456 0 0)
(0.173454 0 0)
(0.192912 0 0)
(0.207616 0 0)
(0.217456 0 0)
(0.222385 0 0)
(0.222385 0 0)
(0.217456 0 0)
(0.207615 0 0)
(0.192911 0 0)
(0.173454 0 0)
(0.149456 0 0)
(0.121283 0 0)
(0.0895016 0 0)
(0.054905 0 0)
(0.0185085 0 0)
(0.0223 0 0)
(0.0660751 0 0)
(0.10748 0 0)
(0.145241 0 0)
(0.17843 0 0)
(0.206456 0 0)
(0.228996 0 0)
(0.245913 0 0)
(0.257175 0 0)
(0.262798 0 0)
(0.262798 0 0)
(0.257175 0 0)
(0.245913 0 0)
(0.228996 0 0)
(0.206456 0 0)
(0.17843 0 0)
(0.145241 0 0)
(0.10748 0 0)
(0.0660749 0 0)
(0.0222999 0 0)
(0.0269179 0 0)
(0.0796196 0 0)
(0.129109 0 0)
(0.17378 0 0)
(0.212581 0 0)
(0.24496 0 0)
(0.270721 0 0)
(0.289882 0 0)
(0.302554 0 0)
(0.308854 0 0)
(0.308854 0 0)
(0.302554 0 0)
(0.289882 0 0)
(0.270721 0 0)
(0.24496 0 0)
(0.212581 0 0)
(0.17378 0 0)
(0.129109 0 0)
(0.0796196 0 0)
(0.0269178 0 0)
(0.0326713 0 0)
(0.0963805 0 0)
(0.155566 0 0)
(0.208197 0 0)
(0.253167 0 0)
(0.290097 0 0)
(0.319062 0 0)
(0.340358 0 0)
(0.354322 0 0)
(0.361229 0 0)
(0.361229 0 0)
(0.354322 0 0)
(0.340358 0 0)
(0.319063 0 0)
(0.290097 0 0)
(0.253168 0 0)
(0.208198 0 0)
(0.155566 0 0)
(0.0963806 0 0)
(0.0326713 0 0)
(0.0400596 0 0)
(0.117669 0 0)
(0.188584 0 0)
(0.250286 0 0)
(0.301806 0 0)
(0.343211 0 0)
(0.37509 0 0)
(0.398183 0 0)
(0.413166 0 0)
(0.42053 0 0)
(0.42053 0 0)
(0.413167 0 0)
(0.398184 0 0)
(0.37509 0 0)
(0.343211 0 0)
(0.301806 0 0)
(0.250287 0 0)
(0.188585 0 0)
(0.117669 0 0)
(0.0400596 0 0)
(0.0499588 0 0)
(0.145656 0 0)
(0.230823 0 0)
(0.302566 0 0)
(0.36057 0 0)
(0.405864 0 0)
(0.439916 0 0)
(0.464135 0 0)
(0.479646 0 0)
(0.487211 0 0)
(0.487211 0 0)
(0.479646 0 0)
(0.464136 0 0)
(0.439917 0 0)
(0.405865 0 0)
(0.360571 0 0)
(0.302567 0 0)
(0.230823 0 0)
(0.145656 0 0)
(0.0499589 0 0)
(0.0640797 0 0)
(0.184177 0 0)
(0.28649 0 0)
(0.368592 0 0)
(0.432055 0 0)
(0.479772 0 0)
(0.514589 0 0)
(0.538809 0 0)
(0.554087 0 0)
(0.561473 0 0)
(0.561473 0 0)
(0.554087 0 0)
(0.538809 0 0)
(0.51459 0 0)
(0.479773 0 0)
(0.432056 0 0)
(0.368593 0 0)
(0.286491 0 0)
(0.184177 0 0)
(0.0640798 0 0)
(0.0862641 0 0)
(0.240483 0 0)
(0.362376 0 0)
(0.453264 0 0)
(0.519295 0 0)
(0.566588 0 0)
(0.599871 0 0)
(0.622436 0 0)
(0.636432 0 0)
(0.643133 0 0)
(0.643133 0 0)
(0.636432 0 0)
(0.622437 0 0)
(0.599872 0 0)
(0.566589 0 0)
(0.519296 0 0)
(0.453265 0 0)
(0.362376 0 0)
(0.240484 0 0)
(0.0862642 0 0)
(0.126758 0 0)
(0.329119 0 0)
(0.469269 0 0)
(0.562798 0 0)
(0.62528 0 0)
(0.667424 0 0)
(0.695878 0 0)
(0.714644 0 0)
(0.726081 0 0)
(0.731506 0 0)
(0.731506 0 0)
(0.726082 0 0)
(0.714645 0 0)
(0.695879 0 0)
(0.667425 0 0)
(0.625281 0 0)
(0.562799 0 0)
(0.46927 0 0)
(0.329119 0 0)
(0.126759 0 0)
(0.218409 0 0)
(0.479967 0 0)
(0.622786 0 0)
(0.703383 0 0)
(0.75161 0 0)
(0.781955 0 0)
(0.80158 0 0)
(0.814187 0 0)
(0.821752 0 0)
(0.825309 0 0)
(0.825309 0 0)
(0.821752 0 0)
(0.814188 0 0)
(0.801581 0 0)
(0.781955 0 0)
(0.75161 0 0)
(0.703383 0 0)
(0.622787 0 0)
(0.479968 0 0)
(0.218409 0 0)
(0.485321 0 0)
(0.749556 0 0)
(0.838528 0 0)
(0.876339 0 0)
(0.895824 0 0)
(0.907209 0 0)
(0.914305 0 0)
(0.918777 0 0)
(0.921433 0 0)
(0.922676 0 0)
(0.922676 0 0)
(0.921433 0 0)
(0.918777 0 0)
(0.914306 0 0)
(0.907209 0 0)
(0.895824 0 0)
(0.876339 0 0)
(0.838529 0 0)
(0.749556 0 0)
(0.485321 0 0)
)
;

boundaryField
{
    movingWall
    {
        type            fixedValue;
        value           uniform (0.971981 0 0);
    }
    fixedWalls
    {
        type            noSlip;
    }
    frontAndBack
    {
        type            empty;
    }
}


// ************************************************************************* //
