/*--------------------------------*- C++ -*----------------------------------*\
  =========                 |
  \\      /  F ield         | OpenFOAM: The Open Source CFD Toolbox
   \\    /   O peration     | Website:  https://openfoam.org
    \\  /    A nd           | Version:  9
     \\/     M anipulation  |
\*---------------------------------------------------------------------------*/
FoamFile
{
    format      ascii;
    class       volVectorField;
    location    "0.025";
    object      U;
}
// * * * * * * * * * * * * * * * * * * * * * * * * * * * * * * * * * * * * * //

dimensions      [0 1 -1 0 0 0 0];

internalField   nonuniform List<vector> 
40
(
(-0.414222 -0.738692 0)
(-0.310267 -0.810055 0)
(-0.168114 -0.746087 0)
(-0.0452074 -0.39021 0)
(-0.464418 -0.467291 0)
(-0.462086 -0.64266 0)
(-0.429739 -0.81785 0)
(-0.346919 -0.936019 0)
(-0.207723 -0.906231 0)
(-0.0604292 -0.500569 0)
(-0.311521 -0.452979 0)
(-0.34983 -0.64293 0)
(-0.370908 -0.853733 0)
(-0.344733 -1.03452 0)
(-0.239172 -1.06945 0)
(-0.0771767 -0.640684 0)
(0.00664856 -0.392651 0)
(-0.0821019 -0.581702 0)
(-0.179634 -0.816139 0)
(-0.250957 -1.06148 0)
(-0.234655 -1.20117 0)
(-0.0844097 -0.80951 0)
(0.545222 -0.286966 0)
(0.406615 -0.446223 0)
(0.221612 -0.668832 0)
(0.00960305 -0.956302 0)
(-0.141034 -1.23577 0)
(-0.050927 -1.00415 0)
(1.37526 -0.14825 0)
(1.20858 -0.244425 0)
(0.957651 -0.400515 0)
(0.590206 -0.656613 0)
(0.189032 -1.0364 0)
(0.134573 -1.06481 0)
(2.63105 -0.0367332 0)
(2.53056 -0.0640413 0)
(2.34216 -0.11288 0)
(1.9985 -0.208892 0)
(1.46488 -0.398228 0)
(1.10601 -0.510573 0)
)
;

boundaryField
{
    movingWall
    {
        type            fixedValue;
        value           uniform (3.50862 0 0);
    }
    fixedWalls
    {
        type            noSlip;
    }
    frontAndBack
    {
        type            empty;
    }
    procBoundary9to6
    {
        type            processor;
        value           nonuniform List<vector> 6((-0.457245 -0.318829 0) (-0.273494 -0.298392 0) (0.0769374 -0.248869 0) (0.64534 -0.172416 0) (1.48457 -0.0837912 0) (2.69827 -0.0188227 0));
    }
    procBoundary9to8
    {
        type            processor;
        value           nonuniform List<vector> 7((-0.374214 -0.647001 0) (-0.264556 -0.684811 0) (-0.134182 -0.608659 0) (-0.0341364 -0.306533 0) (-0.511672 -0.453476 0) (-0.478022 -0.602363 0) (-0.478022 -0.602363 0));
    }
}


// ************************************************************************* //
