/*--------------------------------*- C++ -*----------------------------------*\
  =========                 |
  \\      /  F ield         | OpenFOAM: The Open Source CFD Toolbox
   \\    /   O peration     | Website:  https://openfoam.org
    \\  /    A nd           | Version:  8
     \\/     M anipulation  |
\*---------------------------------------------------------------------------*/
FoamFile
{
    version     2.0;
    format      ascii;
    class       volScalarField;
    location    "1";
    object      p;
}
// * * * * * * * * * * * * * * * * * * * * * * * * * * * * * * * * * * * * * //

dimensions      [0 2 -2 0 0 0 0];

internalField   nonuniform List<scalar> 
400
(
-0.0992347
-0.198277
-0.251455
-0.276851
-0.280494
-0.268281
-0.243339
-0.206254
-0.159672
-0.106587
-0.0492311
0.0102097
0.0689687
0.123902
0.172137
0.211623
0.241367
0.261355
0.272367
0.27603
-0.198665
-0.239162
-0.268709
-0.283872
-0.282863
-0.268009
-0.241664
-0.20452
-0.158764
-0.106753
-0.0503065
0.00855187
0.0670408
0.121884
0.170014
0.209209
0.2384
0.257512
0.266912
0.266558
-0.250393
-0.268612
-0.280426
-0.284835
-0.277509
-0.26016
-0.234086
-0.198983
-0.156396
-0.108106
-0.0552597
0.000680964
0.0571302
0.110583
0.157493
0.195208
0.222547
0.239654
0.247095
0.24534
-0.273416
-0.28092
-0.280928
-0.276735
-0.26411
-0.24498
-0.220228
-0.188726
-0.15139
-0.109385
-0.0629455
-0.0125936
0.0395822
0.089944
0.13439
0.16971
0.194469
0.208934
0.214019
0.210762
-0.278251
-0.279285
-0.271836
-0.261242
-0.24428
-0.223727
-0.200639
-0.173314
-0.142186
-0.108098
-0.0704952
-0.0287236
0.0160475
0.0604335
0.100053
0.131308
0.152531
0.163901
0.16663
0.162154
-0.270567
-0.267861
-0.255948
-0.241264
-0.221322
-0.199941
-0.178838
-0.155947
-0.131194
-0.105623
-0.0784828
-0.0479957
-0.0139232
0.0212951
0.0535754
0.0792243
0.0962991
0.10459
0.105554
0.100803
-0.255992
-0.252054
-0.238481
-0.222431
-0.201457
-0.180164
-0.16137
-0.142957
-0.123862
-0.105783
-0.0889068
-0.0709991
-0.0501451
-0.0269614
-0.00429708
0.014622
0.0275815
0.0335666
0.0339762
0.0302507
-0.239858
-0.237016
-0.22472
-0.210504
-0.191192
-0.171465
-0.155515
-0.142128
-0.128078
-0.115402
-0.106561
-0.100273
-0.0932601
-0.0835749
-0.0717253
-0.0596806
-0.0498277
-0.0445021
-0.043044
-0.0448005
-0.224595
-0.22511
-0.217103
-0.208425
-0.194654
-0.179313
-0.167365
-0.160927
-0.153156
-0.14454
-0.140412
-0.142354
-0.146971
-0.149683
-0.147794
-0.14117
-0.132145
-0.124945
-0.120773
-0.120766
-0.20843
-0.213994
-0.212959
-0.213641
-0.210536
-0.204759
-0.19889
-0.202703
-0.205598
-0.203012
-0.201754
-0.207674
-0.219281
-0.230422
-0.235129
-0.23058
-0.218723
-0.206144
-0.197438
-0.197024
-0.185224
-0.196375
-0.204844
-0.218623
-0.231956
-0.244341
-0.248325
-0.265706
-0.285596
-0.295275
-0.299219
-0.306958
-0.320662
-0.334628
-0.340729
-0.333501
-0.314044
-0.291361
-0.275024
-0.274822
-0.145804
-0.1624
-0.184504
-0.216339
-0.251182
-0.293317
-0.314686
-0.347898
-0.388866
-0.417919
-0.433097
-0.444438
-0.457708
-0.469601
-0.471971
-0.457552
-0.42576
-0.38695
-0.356417
-0.352389
-0.0813331
-0.104385
-0.148193
-0.20752
-0.267072
-0.347633
-0.398483
-0.450964
-0.512248
-0.562962
-0.594439
-0.613077
-0.625667
-0.632184
-0.627272
-0.603643
-0.557201
-0.496084
-0.439466
-0.419079
0.0129658
-0.0209782
-0.0966207
-0.198095
-0.286207
-0.398877
-0.48763
-0.567733
-0.649943
-0.721767
-0.772168
-0.799945
-0.80796
-0.801966
-0.78491
-0.752499
-0.694079
-0.608251
-0.51063
-0.45324
0.138489
0.0836094
-0.025987
-0.175089
-0.30366
-0.426233
-0.541971
-0.658521
-0.774851
-0.878477
-0.958055
-1.00053
-0.984407
-0.942166
-0.897332
-0.852957
-0.78903
-0.68552
-0.540196
-0.426211
0.302411
0.209314
0.0779661
-0.0843362
-0.266062
-0.397633
-0.527994
-0.69028
-0.875894
-1.0528
-1.18784
-1.24115
-1.18377
-1.05249
-0.918653
-0.827106
-0.754367
-0.652517
-0.480927
-0.310463
0.525408
0.382867
0.239327
0.116708
-0.0927386
-0.292429
-0.515768
-0.783348
-1.07232
-1.33443
-1.51718
-1.57797
-1.49763
-1.26487
-0.955673
-0.669546
-0.483736
-0.390672
-0.265788
-0.0891817
0.837753
0.690456
0.543745
0.366934
0.0752462
-0.27007
-0.665654
-1.06808
-1.41691
-1.67979
-1.84594
-1.90987
-1.86101
-1.6662
-1.27519
-0.696111
-0.132458
0.200001
0.247462
0.314881
1.45516
1.25602
0.952112
0.482192
-0.106539
-0.645795
-1.08696
-1.44661
-1.73174
-1.94305
-2.08238
-2.14956
-2.13509
-2.01068
-1.72112
-1.18021
-0.311324
0.604645
1.10308
1.19973
2.10084
1.62372
0.830631
-0.00149012
-0.585254
-1.00324
-1.3425
-1.62857
-1.86171
-2.03974
-2.16252
-2.22877
-2.22996
-2.14567
-1.94284
-1.5764
-0.945396
0.126191
1.46217
2.19041
)
;

boundaryField
{
    movingWall
    {
        type            zeroGradient;
    }
    fixedWalls
    {
        type            zeroGradient;
    }
    frontAndBack
    {
        type            empty;
    }
}


// ************************************************************************* //
