/*--------------------------------*- C++ -*----------------------------------*\
  =========                 |
  \\      /  F ield         | OpenFOAM: The Open Source CFD Toolbox
   \\    /   O peration     | Website:  https://openfoam.org
    \\  /    A nd           | Version:  8
     \\/     M anipulation  |
\*---------------------------------------------------------------------------*/
FoamFile
{
    version     2.0;
    format      ascii;
    class       surfaceScalarField;
    location    "1";
    object      phi;
}
// * * * * * * * * * * * * * * * * * * * * * * * * * * * * * * * * * * * * * //

dimensions      [0 3 -1 0 0 0 0];

internalField   nonuniform List<scalar> 
760
(
6.41063e-08
-6.40785e-08
-1.33887e-07
1.97994e-07
-6.0153e-07
4.67646e-07
-1.25005e-06
6.48516e-07
-1.98665e-06
7.36606e-07
-2.73028e-06
7.43627e-07
-3.41202e-06
6.81735e-07
-3.97247e-06
5.60451e-07
-4.35993e-06
3.87468e-07
-4.53165e-06
1.71714e-07
-4.45837e-06
-7.32819e-08
-4.13138e-06
-3.26987e-07
-3.56983e-06
-5.61546e-07
-2.82592e-06
-7.43917e-07
-1.9851e-06
-8.40818e-07
-1.15914e-06
-8.25956e-07
-4.70674e-07
-6.8847e-07
-2.98038e-08
-4.40871e-07
1.02234e-07
-1.32035e-07
1.02237e-07
-1.96274e-07
1.32187e-07
-9.66309e-07
9.68037e-07
-2.25722e-06
1.75856e-06
-3.90687e-06
2.29817e-06
-5.7292e-06
2.55894e-06
-7.54544e-06
2.55987e-06
-9.19408e-06
2.33037e-06
-1.05329e-05
1.89932e-06
-1.14408e-05
1.29532e-06
-1.18226e-05
5.53549e-07
-1.16197e-05
-2.76262e-07
-1.08221e-05
-1.1245e-06
-9.48209e-06
-1.90159e-06
-7.72067e-06
-2.50534e-06
-5.72577e-06
-2.83572e-06
-3.73518e-06
-2.81655e-06
-2.00298e-06
-2.42068e-06
-7.50268e-07
-1.69359e-06
-1.03266e-07
-7.79046e-07
-1.02603e-09
-5.06237e-07
6.3843e-07
-1.89275e-06
2.35455e-06
-3.96804e-06
3.83384e-06
-6.49161e-06
4.82175e-06
-9.21064e-06
5.27797e-06
-1.1883e-05
5.23218e-06
-1.42871e-05
4.73456e-06
-1.62269e-05
3.83905e-06
-1.75354e-05
2.60384e-06
-1.80838e-05
1.10192e-06
-1.77938e-05
-5.66267e-07
-1.66537e-05
-2.26454e-06
-1.47337e-05
-3.82163e-06
-1.21947e-05
-5.04428e-06
-9.28659e-06
-5.74387e-06
-6.32753e-06
-5.77561e-06
-3.66344e-06
-5.08477e-06
-1.60779e-06
-3.74923e-06
-3.7138e-07
-2.01546e-06
-3.72405e-07
-7.8961e-07
1.42805e-06
-2.76906e-06
4.334e-06
-5.58875e-06
6.65353e-06
-8.91441e-06
8.14741e-06
-1.24306e-05
8.79418e-06
-1.58475e-05
8.64907e-06
-1.89036e-05
7.79068e-06
-2.13676e-05
6.30297e-06
-2.30419e-05
4.2782e-06
-2.37722e-05
1.83221e-06
-2.34608e-05
-8.77709e-07
-2.20846e-05
-3.64076e-06
-1.97135e-05
-6.19265e-06
-1.65248e-05
-8.23307e-06
-1.28052e-05
-9.46346e-06
-8.93569e-06
-9.64509e-06
-5.35007e-06
-8.67039e-06
-2.46968e-06
-6.62962e-06
-6.26304e-07
-3.85883e-06
-9.98709e-07
-1.04206e-06
2.4701e-06
-3.57062e-06
6.86257e-06
-7.08455e-06
1.01675e-05
-1.11527e-05
1.22156e-05
-1.53997e-05
1.30412e-05
-1.94972e-05
1.27465e-05
-2.31563e-05
1.14498e-05
-2.61232e-05
9.26989e-06
-2.8179e-05
6.33399e-06
-2.91464e-05
2.79962e-06
-2.89032e-05
-1.12091e-06
-2.74016e-05
-5.14238e-06
-2.46913e-05
-8.90295e-06
-2.09422e-05
-1.19821e-05
-1.64592e-05
-1.39465e-05
-1.1677e-05
-1.44273e-05
-7.12621e-06
-1.32212e-05
-3.36333e-06
-1.03925e-05
-8.7721e-07
-6.34495e-06
-1.87592e-06
-1.26707e-06
3.73717e-06
-4.29516e-06
9.89065e-06
-8.44571e-06
1.4318e-05
-1.31959e-05
1.69658e-05
-1.81156e-05
1.79608e-05
-2.2846e-05
1.7477e-05
-2.70817e-05
1.56855e-05
-3.0556e-05
1.27442e-05
-3.30354e-05
8.81337e-06
-3.43209e-05
4.08509e-06
-3.42591e-05
-1.18268e-06
-3.27626e-05
-6.6389e-06
-2.98387e-05
-1.18268e-05
-2.56244e-05
-1.61964e-05
-2.0419e-05
-1.91519e-05
-1.47007e-05
-2.01457e-05
-9.1061e-06
-1.88157e-05
-4.35952e-06
-1.51391e-05
-1.15203e-06
-9.55245e-06
-3.02795e-06
-1.46698e-06
5.20415e-06
-4.94192e-06
1.33656e-05
-9.66309e-06
1.90392e-05
-1.50244e-05
2.23271e-05
-2.05488e-05
2.34852e-05
-2.5857e-05
2.27852e-05
-3.06373e-05
2.04658e-05
-3.46214e-05
1.67284e-05
-3.75689e-05
1.17608e-05
-3.92621e-05
5.77823e-06
-3.95121e-05
-9.32651e-07
-3.81784e-05
-7.97263e-06
-3.52027e-05
-1.48025e-05
-3.0658e-05
-2.0741e-05
-2.48056e-05
-2.50043e-05
-1.8143e-05
-2.68083e-05
-1.14133e-05
-2.55454e-05
-5.54194e-06
-2.10105e-05
-1.48312e-06
-1.36113e-05
-4.51107e-06
-1.64244e-06
6.8466e-06
-5.50794e-06
1.72311e-05
-1.07221e-05
2.42534e-05
-1.66038e-05
2.82088e-05
-2.26387e-05
2.952e-05
-2.84386e-05
2.85851e-05
-3.36993e-05
2.57265e-05
-3.81642e-05
2.11933e-05
-4.15985e-05
1.51951e-05
-4.37739e-05
7.95369e-06
-4.44682e-05
-2.38403e-07
-4.34793e-05
-8.96146e-06
-4.06625e-05
-1.76193e-05
-3.59913e-05
-2.54123e-05
-2.96422e-05
-3.13533e-05
-2.20873e-05
-3.43632e-05
-1.4154e-05
-3.34786e-05
-6.99422e-06
-2.81702e-05
-1.90452e-06
-1.8701e-05
-6.41559e-06
-1.79424e-06
8.64084e-06
-5.99117e-06
2.1428e-05
-1.16068e-05
2.9869e-05
-1.78896e-05
3.44917e-05
-2.42983e-05
3.59286e-05
-3.04505e-05
3.47373e-05
-3.60668e-05
3.13428e-05
-4.09209e-05
2.60474e-05
-4.48016e-05
1.90758e-05
-4.74874e-05
1.06394e-05
-4.87337e-05
1.00793e-06
-4.828e-05
-9.41512e-06
-4.58814e-05
-2.0018e-05
-4.13763e-05
-2.99174e-05
-3.47975e-05
-3.79322e-05
-2.65175e-05
-4.26432e-05
-1.73893e-05
-4.26068e-05
-8.79073e-06
-3.67688e-05
-2.45189e-06
-2.50398e-05
-8.86748e-06
-1.92764e-06
1.05685e-05
-6.39993e-06
2.59003e-05
-1.23117e-05
3.57808e-05
-1.88401e-05
4.10201e-05
-2.54278e-05
4.25163e-05
-3.17171e-05
4.10266e-05
-3.74756e-05
3.71013e-05
-4.25315e-05
3.11033e-05
-4.67232e-05
2.32675e-05
-4.98614e-05
1.37777e-05
-5.1705e-05
2.85146e-06
-5.19524e-05
-9.16768e-06
-5.02611e-05
-2.17093e-05
-4.63086e-05
-3.38698e-05
-3.99187e-05
-4.43221e-05
-3.12611e-05
-5.13008e-05
-2.11006e-05
-5.27673e-05
-1.09862e-05
-4.68832e-05
-3.16394e-06
-3.28621e-05
-1.20314e-05
-2.05965e-06
1.26281e-05
-6.76812e-06
3.06088e-05
-1.2861e-05
4.18737e-05
-1.94352e-05
4.75942e-05
-2.59326e-05
4.90138e-05
-3.20461e-05
4.71401e-05
-3.76189e-05
4.26741e-05
-4.25636e-05
3.60481e-05
-4.68e-05
2.75039e-05
-5.02065e-05
1.71842e-05
-5.25829e-05
5.22794e-06
-5.36248e-05
-8.12578e-06
-5.29182e-05
-2.2416e-05
-4.99776e-05
-3.68104e-05
-4.43628e-05
-4.99368e-05
-3.59169e-05
-5.97468e-05
-2.51386e-05
-6.35456e-05
-1.35982e-05
-5.84237e-05
-4.08458e-06
-4.23756e-05
-1.6116e-05
-2.23058e-06
1.48587e-05
-7.17615e-06
3.55544e-05
-1.33301e-05
4.80276e-05
-1.96947e-05
5.39587e-05
-2.57385e-05
5.50577e-05
-3.12437e-05
5.26452e-05
-3.6167e-05
4.75975e-05
-4.05404e-05
4.04215e-05
-4.43996e-05
3.1363e-05
-4.77303e-05
2.05149e-05
-5.04215e-05
7.91913e-06
-5.22212e-05
-6.32606e-06
-5.27006e-05
-2.19366e-05
-5.12475e-05
-3.82635e-05
-4.71396e-05
-5.40447e-05
-3.97756e-05
-6.71108e-05
-2.91523e-05
-7.41689e-05
-1.65752e-05
-7.10009e-05
-5.26483e-06
-5.36859e-05
-2.13808e-05
-2.52276e-06
1.73815e-05
-7.77662e-06
4.08082e-05
-1.38607e-05
5.41117e-05
-1.96777e-05
5.97757e-05
-2.47799e-05
6.01599e-05
-2.91012e-05
5.69665e-05
-3.2762e-05
5.12583e-05
-3.59509e-05
4.36104e-05
-3.88521e-05
3.42642e-05
-4.15941e-05
2.32568e-05
-4.42023e-05
1.05273e-05
-4.65432e-05
-3.98517e-06
-4.82569e-05
-2.02229e-05
-4.86912e-05
-3.78291e-05
-4.68895e-05
-5.58465e-05
-4.17431e-05
-7.22571e-05
-3.24932e-05
-8.34188e-05
-1.97388e-05
-8.37553e-05
-6.76109e-06
-6.66637e-05
-2.81419e-05
-3.09043e-06
2.04719e-05
-8.81672e-06
4.65345e-05
-1.46442e-05
5.99392e-05
-1.94246e-05
6.45561e-05
-2.29159e-05
6.36512e-05
-2.53038e-05
5.93544e-05
-2.69362e-05
5.28907e-05
-2.81941e-05
4.48683e-05
-2.94303e-05
3.55005e-05
-3.09352e-05
2.47617e-05
-3.29019e-05
1.24941e-05
-3.53727e-05
-1.51435e-06
-3.81526e-05
-1.7443e-05
-4.06833e-05
-3.52984e-05
-4.1914e-05
-5.46158e-05
-4.02841e-05
-7.3887e-05
-3.40949e-05
-8.9608e-05
-2.26803e-05
-9.51698e-05
-8.61762e-06
-8.07264e-05
-3.67595e-05
-4.20091e-06
2.46728e-05
-1.06227e-05
5.29563e-05
-1.5798e-05
6.51145e-05
-1.87463e-05
6.75044e-05
-1.9674e-05
6.45789e-05
-1.91676e-05
5.8848e-05
-1.78716e-05
5.15946e-05
-1.6379e-05
4.33757e-05
-1.52055e-05
3.4327e-05
-1.47895e-05
2.43456e-05
-1.54869e-05
1.31915e-05
-1.75396e-05
5.38364e-07
-2.09931e-05
-1.39895e-05
-2.55379e-05
-3.07536e-05
-3.02631e-05
-4.98906e-05
-3.33938e-05
-7.07564e-05
-3.23151e-05
-9.06867e-05
-2.45645e-05
-0.00010292
-1.07922e-05
-9.44986e-05
-4.75518e-05
-6.24778e-06
3.09206e-05
-1.34076e-05
6.01161e-05
-1.6927e-05
6.86338e-05
-1.66406e-05
6.72181e-05
-1.36299e-05
6.15682e-05
-9.05269e-06
5.42708e-05
-3.88379e-06
4.64257e-05
1.10333e-06
3.83886e-05
5.28902e-06
3.01413e-05
8.15132e-06
2.14833e-05
9.22937e-06
1.21134e-05
8.11719e-06
1.65055e-06
4.51286e-06
-1.03852e-05
-1.64286e-06
-2.45979e-05
-9.86082e-06
-4.16726e-05
-1.85962e-05
-6.2021e-05
-2.47178e-05
-8.45651e-05
-2.37575e-05
-0.000103881
-1.29192e-05
-0.000105337
-6.0471e-05
-9.56356e-06
4.04842e-05
-1.64306e-05
6.69832e-05
-1.58256e-05
6.80288e-05
-9.89253e-06
6.1285e-05
-1.12696e-06
5.28026e-05
8.70529e-06
4.44385e-05
1.84239e-05
3.67071e-05
2.72318e-05
2.95808e-05
3.45517e-05
2.28214e-05
3.99088e-05
1.61262e-05
4.28527e-05
9.16952e-06
4.2915e-05
1.58824e-06
3.96075e-05
-7.07766e-06
3.24854e-05
-1.74757e-05
2.13918e-05
-3.05791e-05
7.06054e-06
-4.76897e-05
-7.76822e-06
-6.97363e-05
-1.72173e-05
-9.44317e-05
-1.37676e-05
-0.000108787
-7.42386e-05
-1.34346e-05
5.39188e-05
-1.50863e-05
6.86348e-05
-5.10097e-06
5.80435e-05
9.81119e-06
4.63729e-05
2.58464e-05
3.67674e-05
4.12202e-05
2.90647e-05
5.50522e-05
2.2875e-05
6.68784e-05
1.77546e-05
7.641e-05
1.32897e-05
8.33957e-05
9.14054e-06
8.75407e-05
5.02448e-06
8.84529e-05
6.76121e-07
8.56064e-05
-4.23118e-06
7.82948e-05
-1.01642e-05
6.5689e-05
-1.79732e-05
4.72085e-05
-2.92092e-05
2.38069e-05
-4.63348e-05
7.14573e-07
-7.13394e-05
-1.02195e-05
-9.78525e-05
-8.44581e-05
-9.41381e-06
6.33326e-05
8.82182e-06
5.03992e-05
3.51884e-05
3.1677e-05
6.00508e-05
2.15105e-05
8.15049e-05
1.53133e-05
9.94799e-05
1.10897e-05
0.000114234
8.12051e-06
0.000126052
5.93697e-06
0.000135137
4.20431e-06
0.000141575
2.70309e-06
0.000145313
1.28588e-06
0.000146146
-1.56641e-07
0.000143682
-1.76703e-06
0.000137219
-3.70128e-06
0.000125586
-6.34001e-06
0.000106932
-1.05553e-05
7.91069e-05
-1.85096e-05
4.2311e-05
-3.45435e-05
6.90264e-06
-6.24441e-05
-7.75555e-05
6.33326e-05
0.000113732
0.000145409
0.000166919
0.000182232
0.000193322
0.000201443
0.00020738
0.000211584
0.000214287
0.000215573
0.000215416
0.000213649
0.000209948
0.000203608
0.000193053
0.000174543
0.00014
7.75555e-05
)
;

boundaryField
{
    movingWall
    {
        type            calculated;
        value           uniform 0;
    }
    fixedWalls
    {
        type            calculated;
        value           uniform 0;
    }
    frontAndBack
    {
        type            empty;
        value           nonuniform List<scalar> 0();
    }
}


// ************************************************************************* //
