/*--------------------------------*- C++ -*----------------------------------*\
  =========                 |
  \\      /  F ield         | OpenFOAM: The Open Source CFD Toolbox
   \\    /   O peration     | Website:  https://openfoam.org
    \\  /    A nd           | Version:  8
     \\/     M anipulation  |
\*---------------------------------------------------------------------------*/
FoamFile
{
    version     2.0;
    format      ascii;
    class       volVectorField;
    location    "1";
    object      U;
}
// * * * * * * * * * * * * * * * * * * * * * * * * * * * * * * * * * * * * * //

dimensions      [0 1 -1 0 0 0 0];

internalField   nonuniform List<vector> 
400
(
(0.00120526 -0.0012071 0)
(0.000403185 0.000673873 0)
(-0.00645199 0.0028685 0)
(-0.0179724 0.00434176 0)
(-0.032182 0.00507064 0)
(-0.0473083 0.00518688 0)
(-0.061846 0.00480734 0)
(-0.0745128 0.00400859 0)
(-0.0841947 0.00283833 0)
(-0.0899339 0.00134613 0)
(-0.0909877 -0.000383528 0)
(-0.0869503 -0.00220767 0)
(-0.0779046 -0.00391757 0)
(-0.0645569 -0.00525438 0)
(-0.0483007 -0.00594786 0)
(-0.0311568 -0.00577504 0)
(-0.0155499 -0.00463009 0)
(-0.00390981 -0.002595 0)
(0.00189271 -8.65809e-05 0)
(0.00157767 0.00152489 0)
(-0.000622708 -0.000510661 0)
(-0.00896481 0.00884308 0)
(-0.0300628 0.0184083 0)
(-0.0603991 0.0249916 0)
(-0.0960032 0.0282456 0)
(-0.1332 0.0284763 0)
(-0.168577 0.0260803 0)
(-0.199082 0.0214037 0)
(-0.22206 0.0147549 0)
(-0.235313 0.00650155 0)
(-0.237253 -0.00281692 0)
(-0.227139 -0.0124125 0)
(-0.205349 -0.0212407 0)
(-0.173607 -0.0280846 0)
(-0.135047 -0.0317366 0)
(-0.0940409 -0.0312624 0)
(-0.0556814 -0.0263117 0)
(-0.0249254 -0.0174167 0)
(-0.00570065 -0.00641619 0)
(0.00031279 0.00208376 0)
(-0.00307597 0.00649991 0)
(-0.02011 0.0303396 0)
(-0.0555913 0.0520886 0)
(-0.103014 0.0669176 0)
(-0.156695 0.0740134 0)
(-0.211748 0.0738047 0)
(-0.263544 0.0670506 0)
(-0.307874 0.0545458 0)
(-0.341074 0.0371206 0)
(-0.360138 0.0158091 0)
(-0.362927 -0.00794651 0)
(-0.348473 -0.0321616 0)
(-0.317306 -0.0543189 0)
(-0.271721 -0.0715695 0)
(-0.215878 -0.0811429 0)
(-0.155601 -0.0809408 0)
(-0.0977304 -0.0702312 0)
(-0.049055 -0.0502903 0)
(-0.0155822 -0.0250361 0)
(-0.00167186 -0.00260507 0)
(-0.00527329 0.0195556 0)
(-0.0305761 0.0642514 0)
(-0.0798954 0.10145 0)
(-0.143286 0.125982 0)
(-0.213261 0.13705 0)
(-0.283961 0.135404 0)
(-0.349923 0.122281 0)
(-0.406188 0.0990328 0)
(-0.448432 0.0671472 0)
(-0.473083 0.0285007 0)
(-0.477548 -0.0143437 0)
(-0.460538 -0.0579396 0)
(-0.422452 -0.0979767 0)
(-0.36572 -0.129595 0)
(-0.295012 -0.148039 0)
(-0.217144 -0.149621 0)
(-0.140447 -0.132878 0)
(-0.0736347 -0.0996258 0)
(-0.0253444 -0.0557659 0)
(-0.00346141 -0.0125743 0)
(-0.00717485 0.0379783 0)
(-0.0400312 0.109559 0)
(-0.10227 0.165075 0)
(-0.180524 0.200248 0)
(-0.265497 0.215021 0)
(-0.350478 0.210852 0)
(-0.429408 0.189647 0)
(-0.496847 0.153408 0)
(-0.548044 0.104333 0)
(-0.578992 0.0451722 0)
(-0.586624 -0.0203548 0)
(-0.569145 -0.0872717 0)
(-0.526473 -0.14933 0)
(-0.460718 -0.199384 0)
(-0.376602 -0.230249 0)
(-0.281612 -0.236055 0)
(-0.185555 -0.213944 0)
(-0.0994348 -0.165686 0)
(-0.0352397 -0.098787 0)
(-0.00511088 -0.0275282 0)
(-0.0088384 0.0611746 0)
(-0.0485086 0.165359 0)
(-0.122574 0.242011 0)
(-0.214478 0.288739 0)
(-0.313226 0.306975 0)
(-0.411383 0.299357 0)
(-0.502485 0.268711 0)
(-0.580832 0.217782 0)
(-0.641426 0.149461 0)
(-0.679914 0.0672876 0)
(-0.692704 -0.023975 0)
(-0.677283 -0.117908 0)
(-0.632705 -0.206299 0)
(-0.560257 -0.279485 0)
(-0.464185 -0.32732 0)
(-0.35227 -0.3409 0)
(-0.235737 -0.314931 0)
(-0.128307 -0.250176 0)
(-0.0462156 -0.155227 0)
(-0.00687433 -0.0476337 0)
(-0.0103041 0.0886205 0)
(-0.0560527 0.230645 0)
(-0.14072 0.331071 0)
(-0.244859 0.390237 0)
(-0.355951 0.411792 0)
(-0.465998 0.400062 0)
(-0.568346 0.359072 0)
(-0.657258 0.292395 0)
(-0.727688 0.20354 0)
(-0.775057 0.0966455 0)
(-0.795247 -0.0227456 0)
(-0.784848 -0.147027 0)
(-0.741687 -0.266164 0)
(-0.665669 -0.367832 0)
(-0.55989 -0.43836 0)
(-0.431797 -0.464732 0)
(-0.293727 -0.437728 0)
(-0.162412 -0.355607 0)
(-0.0594267 -0.227178 0)
(-0.0090498 -0.0736791 0)
(-0.0115916 0.11982 0)
(-0.0626726 0.304325 0)
(-0.156573 0.430829 0)
(-0.271214 0.503159 0)
(-0.392746 0.527911 0)
(-0.51282 0.511642 0)
(-0.624841 0.459879 0)
(-0.72332 0.377103 0)
(-0.803432 0.267325 0)
(-0.86059 0.134996 0)
(-0.890261 -0.0139661 0)
(-0.888094 -0.171216 0)
(-0.850405 -0.325254 0)
(-0.775151 -0.461178 0)
(-0.663432 -0.561326 0)
(-0.521374 -0.607355 0)
(-0.36162 -0.584142 0)
(-0.203824 -0.485147 0)
(-0.0761018 -0.317767 0)
(-0.0119657 -0.107129 0)
(-0.0127212 0.154284 0)
(-0.0683959 0.385234 0)
(-0.170014 0.539598 0)
(-0.293004 0.625441 0)
(-0.422356 0.653092 0)
(-0.549617 0.631939 0)
(-0.668584 0.569361 0)
(-0.774376 0.470839 0)
(-0.862767 0.340748 0)
(-0.929521 0.183509 0)
(-0.969993 0.00489071 0)
(-0.979054 -0.186675 0)
(-0.951434 -0.378878 0)
(-0.882674 -0.554674 0)
(-0.770928 -0.692283 0)
(-0.619595 -0.766905 0)
(-0.440109 -0.755109 0)
(-0.254187 -0.642174 0)
(-0.0975016 -0.431064 0)
(-0.0160042 -0.150153 0)
(-0.0137609 0.191563 0)
(-0.0734131 0.472185 0)
(-0.181171 0.655403 0)
(-0.309867 0.754367 0)
(-0.443459 0.784092 0)
(-0.573708 0.757512 0)
(-0.695223 0.684264 0)
(-0.804205 0.57096 0)
(-0.897524 0.422219 0)
(-0.971818 0.242071 0)
(-1.02286 0.035536 0)
(-1.0452 -0.189688 0)
(-1.03223 -0.421467 0)
(-0.9769 -0.641567 0)
(-0.873558 -0.824586 0)
(-0.721151 -0.938623 0)
(-0.527507 -0.949389 0)
(-0.314285 -0.829354 0)
(-0.124906 -0.571772 0)
(-0.0216534 -0.205672 0)
(-0.0149059 0.231404 0)
(-0.0783161 0.564154 0)
(-0.190765 0.776023 0)
(-0.321998 0.886425 0)
(-0.455039 0.916353 0)
(-0.582322 0.883183 0)
(-0.699837 0.799298 0)
(-0.805456 0.672607 0)
(-0.897754 0.507886 0)
(-0.97491 0.308458 0)
(-1.03385 0.0780116 0)
(-1.06959 -0.177409 0)
(-1.07489 -0.447132 0)
(-1.04045 -0.713286 0)
(-0.956338 -0.948274 0)
(-0.815321 -1.1135 0)
(-0.618417 -1.1618 0)
(-0.383343 -1.04716 0)
(-0.159567 -0.744624 0)
(-0.0295874 -0.277451 0)
(-0.0166158 0.274082 0)
(-0.084456 0.660659 0)
(-0.20057 0.899099 0)
(-0.330555 1.01714 0)
(-0.456698 1.04366 0)
(-0.572873 1.00162 0)
(-0.677258 0.906657 0)
(-0.770113 0.768155 0)
(-0.852396 0.590996 0)
(-0.924552 0.377565 0)
(-0.985522 0.129743 0)
(-1.03185 -0.148938 0)
(-1.05682 -0.450693 0)
(-1.04994 -0.760117 0)
(-0.997355 -1.04999 0)
(-0.884506 -1.27711 0)
(-0.702044 -1.38108 0)
(-0.457893 -1.29162 0)
(-0.202525 -0.953312 0)
(-0.0407782 -0.370246 0)
(-0.0198542 0.321052 0)
(-0.0944609 0.762324 0)
(-0.213856 1.0222 0)
(-0.337805 1.14075 0)
(-0.448509 1.15769 0)
(-0.542674 1.10288 0)
(-0.621838 0.995663 0)
(-0.689506 0.846916 0)
(-0.749682 0.661555 0)
(-0.805709 0.440894 0)
(-0.859342 0.184748 0)
(-0.909756 -0.106464 0)
(-0.952307 -0.429126 0)
(-0.977093 -0.772644 0)
(-0.967944 -1.11379 0)
(-0.903183 -1.40913 0)
(-0.760246 -1.58766 0)
(-0.529999 -1.55123 0)
(-0.254101 -1.19853 0)
(-0.0566153 -0.49 0)
(-0.0265074 0.376085 0)
(-0.112918 0.871528 0)
(-0.235506 1.14247 0)
(-0.346337 1.24944 0)
(-0.429513 1.24724 0)
(-0.487094 1.17393 0)
(-0.525656 1.05256 0)
(-0.552886 0.8952 0)
(-0.576329 0.70652 0)
(-0.602564 0.486671 0)
(-0.636594 0.233408 0)
(-0.681051 -0.0560995 0)
(-0.734851 -0.383125 0)
(-0.791044 -0.743899 0)
(-0.83411 -1.12332 0)
(-0.837711 -1.4842 0)
(-0.765556 -1.7522 0)
(-0.584568 -1.80302 0)
(-0.312553 -1.47446 0)
(-0.0788825 -0.643769 0)
(-0.0400106 0.447158 0)
(-0.146926 0.992643 0)
(-0.270684 1.25519 0)
(-0.355582 1.3314 0)
(-0.392855 1.29674 0)
(-0.394207 1.1979 0)
(-0.373358 1.06061 0)
(-0.34293 0.897006 0)
(-0.314051 0.710879 0)
(-0.296258 0.501024 0)
(-0.297542 0.263368 0)
(-0.324083 -0.00771016 0)
(-0.379225 -0.318138 0)
(-0.461193 -0.671825 0)
(-0.559107 -1.06522 0)
(-0.647195 -1.47517 0)
(-0.679272 -1.83612 0)
(-0.595226 -2.00883 0)
(-0.370659 -1.76313 0)
(-0.108955 -0.838751 0)
(-0.0657245 0.549574 0)
(-0.204777 1.13035 0)
(-0.318402 1.34928 0)
(-0.351106 1.36689 0)
(-0.313323 1.28398 0)
(-0.232468 1.15353 0)
(-0.131015 1.00085 0)
(-0.0262607 0.835868 0)
(0.0681163 0.660165 0)
(0.140915 0.470809 0)
(0.182446 0.262273 0)
(0.18401 0.0271493 0)
(0.138209 -0.243732 0)
(0.0405508 -0.560862 0)
(-0.106524 -0.933288 0)
(-0.285278 -1.35839 0)
(-0.449522 -1.79522 0)
(-0.517894 -2.11334 0)
(-0.407897 -2.02746 0)
(-0.144268 -1.08112 0)
(-0.108562 0.71225 0)
(-0.286119 1.28097 0)
(-0.349022 1.39382 0)
(-0.276165 1.31829 0)
(-0.119785 1.17536 0)
(0.0729598 1.01452 0)
(0.272934 0.854163 0)
(0.461338 0.698355 0)
(0.625056 0.544742 0)
(0.753996 0.388264 0)
(0.839199 0.222476 0)
(0.871637 0.0395838 0)
(0.841718 -0.170425 0)
(0.739603 -0.421244 0)
(0.55758 -0.731389 0)
(0.297981 -1.1202 0)
(-0.0089274 -1.58594 0)
(-0.28154 -2.04365 0)
(-0.37613 -2.20112 0)
(-0.167828 -1.37414 0)
(-0.155459 0.978605 0)
(-0.340163 1.40067 0)
(-0.237176 1.30666 0)
(0.0334391 1.11496 0)
(0.355077 0.923953 0)
(0.674917 0.754488 0)
(0.969975 0.608818 0)
(1.22836 0.482042 0)
(1.44324 0.367228 0)
(1.60969 0.257604 0)
(1.72257 0.146814 0)
(1.77525 0.0282931 0)
(1.75879 -0.106039 0)
(1.66095 -0.268188 0)
(1.46587 -0.478254 0)
(1.15728 -0.768998 0)
(0.73152 -1.18089 0)
(0.228339 -1.71373 0)
(-0.173246 -2.16001 0)
(-0.118919 -1.67545 0)
(-0.0475717 1.26973 0)
(-0.0720753 1.31711 0)
(0.411517 0.969152 0)
(0.958397 0.709705 0)
(1.42982 0.529476 0)
(1.82355 0.398534 0)
(2.14974 0.301236 0)
(2.41474 0.226214 0)
(2.62332 0.164651 0)
(2.77851 0.110163 0)
(2.88078 0.0580409 0)
(2.92768 0.00430297 0)
(2.91349 -0.0552904 0)
(2.82772 -0.12737 0)
(2.65255 -0.224421 0)
(2.35906 -0.373349 0)
(1.90237 -0.630499 0)
(1.22495 -1.07943 0)
(0.453026 -1.68894 0)
(0.217597 -1.70223 0)
(1.4386 0.707368 0)
(1.83612 0.626728 0)
(2.56392 0.398379 0)
(3.13814 0.251736 0)
(3.51264 0.164305 0)
(3.76991 0.109466 0)
(3.95754 0.0740293 0)
(4.09595 0.0502583 0)
(4.19614 0.0331367 0)
(4.26453 0.0195336 0)
(4.30422 0.0074992 0)
(4.31572 -0.00430499 0)
(4.29716 -0.016957 0)
(4.24378 -0.0321804 0)
(4.14578 -0.0531915 0)
(3.982 -0.0880005 0)
(3.70322 -0.158385 0)
(3.17505 -0.316215 0)
(2.30005 -0.622879 0)
(1.66864 -0.780038 0)
)
;

boundaryField
{
    movingWall
    {
        type            fixedValue;
        value           uniform (5.07517 0 0);
    }
    fixedWalls
    {
        type            noSlip;
    }
    frontAndBack
    {
        type            empty;
    }
}


// ************************************************************************* //
