/*--------------------------------*- C++ -*----------------------------------*\
  =========                 |
  \\      /  F ield         | OpenFOAM: The Open Source CFD Toolbox
   \\    /   O peration     | Website:  https://openfoam.org
    \\  /    A nd           | Version:  9
     \\/     M anipulation  |
\*---------------------------------------------------------------------------*/
FoamFile
{
    format      ascii;
    class       surfaceScalarField;
    location    "0.025";
    object      phi;
}
// * * * * * * * * * * * * * * * * * * * * * * * * * * * * * * * * * * * * * //

dimensions      [0 3 -1 0 0 0 0];

internalField   nonuniform List<scalar> 
66
(
-9.5256e-06
-8.16052e-06
-9.77485e-06
-1.11133e-05
-1.00269e-05
-8.68324e-06
-1.22049e-05
-5.96132e-06
-1.33076e-05
-3.26662e-06
-1.28793e-05
-1.03992e-06
-1.05297e-05
-4.89129e-06
-1.29052e-05
-1.18966e-05
-1.0345e-05
-1.47651e-05
-7.27115e-06
-1.63815e-05
-4.07548e-06
-1.6075e-05
-1.32701e-06
-1.32782e-05
-6.2183e-06
-1.4894e-05
-1.37543e-05
-1.22106e-05
-1.74484e-05
-8.82497e-06
-1.97672e-05
-5.09912e-06
-1.98008e-05
-1.71903e-06
-1.66583e-05
-7.93734e-06
-1.71921e-05
-1.5712e-05
-1.43708e-05
-2.02697e-05
-1.0629e-05
-2.3509e-05
-6.31348e-06
-2.41163e-05
-2.19985e-06
-2.07719e-05
-1.01372e-05
-1.96802e-05
-1.77193e-05
-1.67166e-05
-2.32333e-05
-1.26572e-05
-2.75684e-05
-7.69787e-06
-2.90756e-05
-2.75228e-06
-2.57175e-05
-1.28895e-05
-2.19114e-05
-1.95518e-05
-1.90716e-05
-2.60731e-05
-1.48286e-05
-9.29513e-06
-3.42681e-06
-2.32217e-05
)
;

boundaryField
{
    movingWall
    {
        type            calculated;
        value           nonuniform List<scalar> 0();
    }
    fixedWalls
    {
        type            calculated;
        value           uniform 0;
    }
    frontAndBack
    {
        type            empty;
        value           nonuniform List<scalar> 0();
    }
    procBoundary8to5
    {
        type            processor;
        value           nonuniform List<scalar> 4(1.13064e-05 1.29797e-05 1.47749e-05 1.67517e-05);
    }
    procBoundary8to6
    {
        type            processor;
        value           nonuniform List<scalar> 4(1.91498e-05 2.16875e-05 2.37439e-05 2.44583e-05);
    }
    procBoundary8to7
    {
        type            processor;
        value           nonuniform List<scalar> 7(6.37977e-06 7.61049e-06 -7.36123e-06 1.05857e-05 1.01846e-05 8.30299e-06 3.85137e-06);
    }
    procBoundary8to9
    {
        type            processor;
        value           nonuniform List<scalar> 7(-3.18115e-05 -3.46091e-05 -3.15858e-05 -1.63163e-05 -2.07884e-05 -2.09246e-05 -2.83701e-05);
    }
}


// ************************************************************************* //
