/*--------------------------------*- C++ -*----------------------------------*\
  =========                 |
  \\      /  F ield         | OpenFOAM: The Open Source CFD Toolbox
   \\    /   O peration     | Website:  https://openfoam.org
    \\  /    A nd           | Version:  9
     \\/     M anipulation  |
\*---------------------------------------------------------------------------*/
FoamFile
{
    format      ascii;
    class       surfaceScalarField;
    location    "0.01";
    object      phi;
}
// * * * * * * * * * * * * * * * * * * * * * * * * * * * * * * * * * * * * * //

dimensions      [0 3 -1 0 0 0 0];

internalField   nonuniform List<scalar> 
67
(
-6.87343e-08
3.73368e-08
-1.05855e-07
3.71209e-08
-1.37765e-07
3.19104e-08
-1.61732e-07
2.39666e-08
1.47261e-08
-3.64387e-07
1.13018e-07
-4.33153e-07
1.05887e-07
-4.88856e-07
8.7613e-08
-5.27158e-07
6.22685e-08
3.29922e-08
-6.54367e-07
2.15571e-07
-7.40167e-07
1.91686e-07
-8.0491e-07
1.52357e-07
-8.45082e-07
1.0244e-07
4.61662e-08
-8.33383e-07
3.44458e-07
-9.37081e-07
2.95385e-07
-1.01246e-06
2.27731e-07
-1.057e-06
1.46983e-07
5.80294e-08
-9.59225e-07
4.98991e-07
-1.08193e-06
4.18086e-07
-1.16996e-06
3.15766e-07
-1.22144e-06
1.98461e-07
7.18012e-08
-1.07965e-06
6.78631e-07
-1.22183e-06
5.60265e-07
-1.32356e-06
4.17503e-07
-1.38333e-06
2.58226e-07
8.88547e-08
-1.22018e-06
8.83706e-07
-1.38216e-06
7.2225e-07
-1.49783e-06
5.33174e-07
-1.56635e-06
3.26743e-07
1.10109e-07
-1.39537e-06
-1.57718e-06
-1.70654e-06
-1.78318e-06
)
;

boundaryField
{
    movingWall
    {
        type            calculated;
        value           nonuniform List<scalar> 0();
    }
    fixedWalls
    {
        type            calculated;
        value           uniform 0;
    }
    frontAndBack
    {
        type            empty;
        value           nonuniform List<scalar> 0();
    }
    procBoundary2to0
    {
        type            processor;
        value           nonuniform List<scalar> 8(3.13971e-08 2.88706e-07 5.51815e-07 7.04495e-07 8.04693e-07 9.00007e-07 1.0151e-06 1.16343e-06);
    }
    procBoundary2to3
    {
        type            processor;
        value           nonuniform List<scalar> 5(1.11564e-06 9.04066e-07 6.6253e-07 4.03379e-07 1.35027e-07);
    }
    procBoundary2to5
    {
        type            processor;
        value           nonuniform List<scalar> 8(-1.76458e-07 -5.45424e-07 -8.58256e-07 -1.06886e-06 -1.23521e-06 -1.40038e-06 -1.5876e-06 -1.80809e-06);
    }
}


// ************************************************************************* //
