/*--------------------------------*- C++ -*----------------------------------*\
  =========                 |
  \\      /  F ield         | OpenFOAM: The Open Source CFD Toolbox
   \\    /   O peration     | Website:  https://openfoam.org
    \\  /    A nd           | Version:  9
     \\/     M anipulation  |
\*---------------------------------------------------------------------------*/
FoamFile
{
    format      ascii;
    class       volVectorField;
    location    "0.09";
    object      U;
}
// * * * * * * * * * * * * * * * * * * * * * * * * * * * * * * * * * * * * * //

dimensions      [0 1 -1 0 0 0 0];

internalField   nonuniform List<vector> 
40
(
(0.000523795 -0.00152132 0)
(0.000559318 -0.00117055 0)
(-0.00358299 0.000493567 0)
(-0.0114542 0.00243352 0)
(-0.0227551 0.00378548 0)
(-0.0022932 0.000147679 0)
(-0.0104322 0.00589409 0)
(-0.0281588 0.0127414 0)
(-0.0531729 0.0193058 0)
(-0.0830072 0.0235179 0)
(-0.00464648 0.00864858 0)
(-0.0219248 0.0267142 0)
(-0.0548632 0.0421215 0)
(-0.0966794 0.055256 0)
(-0.143231 0.0629053 0)
(-0.00593403 0.0228597 0)
(-0.0305156 0.0595328 0)
(-0.0765812 0.0871779 0)
(-0.133741 0.10761 0)
(-0.195566 0.118159 0)
(-0.00684586 0.0407344 0)
(-0.037556 0.102407 0)
(-0.0951897 0.145647 0)
(-0.166165 0.174289 0)
(-0.241838 0.187252 0)
(-0.00780771 0.061926 0)
(-0.0440946 0.153946 0)
(-0.11213 0.215944 0)
(-0.195512 0.253914 0)
(-0.283752 0.269032 0)
(-0.00886352 0.0864091 0)
(-0.0504035 0.213525 0)
(-0.127922 0.297081 0)
(-0.222485 0.345327 0)
(-0.322019 0.362467 0)
(-0.00999441 0.114123 0)
(-0.0565659 0.280631 0)
(-0.142835 0.388054 0)
(-0.247335 0.447272 0)
(-0.356784 0.466098 0)
)
;

boundaryField
{
    movingWall
    {
        type            fixedValue;
        value           nonuniform List<vector> 0();
    }
    fixedWalls
    {
        type            noSlip;
    }
    frontAndBack
    {
        type            empty;
    }
    procBoundary0to1
    {
        type            processor;
        value           nonuniform List<vector> 5((-0.0110632 0.143382 0) (-0.061868 0.350237 0) (-0.155079 0.480982 0) (-0.266966 0.550335 0) (-0.382884 0.570124 0));
    }
    procBoundary0to2
    {
        type            processor;
        value           nonuniform List<vector> 8((-0.0347461 0.00424212 0) (-0.11293 0.0243308 0) (-0.188475 0.0631281 0) (-0.254178 0.116228 0) (-0.312504 0.181749 0) (-0.365517 0.258809 0) (-0.413926 0.346544 0) (-0.457571 0.443874 0));
    }
}


// ************************************************************************* //
