/*--------------------------------*- C++ -*----------------------------------*\
  =========                 |
  \\      /  F ield         | OpenFOAM: The Open Source CFD Toolbox
   \\    /   O peration     | Website:  https://openfoam.org
    \\  /    A nd           | Version:  9
     \\/     M anipulation  |
\*---------------------------------------------------------------------------*/
FoamFile
{
    format      ascii;
    class       volVectorField;
    location    "0.05";
    object      U;
}
// * * * * * * * * * * * * * * * * * * * * * * * * * * * * * * * * * * * * * //

dimensions      [0 1 -1 0 0 0 0];

internalField   nonuniform List<vector> 
40
(
(-0.854219 0.0481292 0)
(-0.869587 -0.132162 0)
(-0.861298 -0.322858 0)
(-0.823922 -0.515323 0)
(-0.865025 0.0749681 0)
(-0.886642 -0.124578 0)
(-0.889632 -0.339994 0)
(-0.867485 -0.564432 0)
(-0.816584 0.104456 0)
(-0.84211 -0.108123 0)
(-0.857602 -0.341918 0)
(-0.856327 -0.593337 0)
(-0.682191 0.131836 0)
(-0.706893 -0.0841876 0)
(-0.733953 -0.325656 0)
(-0.757712 -0.593875 0)
(-0.431405 0.149737 0)
(-0.448801 -0.056739 0)
(-0.483682 -0.290843 0)
(-0.533618 -0.559416 0)
(-0.0298622 0.150496 0)
(-0.0332816 -0.0316962 0)
(-0.0706202 -0.240078 0)
(-0.143524 -0.486852 0)
(0.561962 0.128573 0)
(0.575141 -0.0147135 0)
(0.540711 -0.178557 0)
(0.451825 -0.378608 0)
(1.389 0.0847209 0)
(1.41358 -0.00808396 0)
(1.38394 -0.113113 0)
(1.28953 -0.244992 0)
(2.49209 0.0326758 0)
(2.51361 -0.00847092 0)
(2.4875 -0.054332 0)
(2.40326 -0.113041 0)
(3.86159 0.00373965 0)
(3.86471 -0.00499277 0)
(3.84493 -0.0142153 0)
(3.79814 -0.0261876 0)
)
;

boundaryField
{
    movingWall
    {
        type            fixedValue;
        value           uniform (4.61707 0 0);
    }
    fixedWalls
    {
        type            noSlip;
    }
    frontAndBack
    {
        type            empty;
    }
    procBoundary6to3
    {
        type            processor;
        value           nonuniform List<vector> 5((-0.792154 0.201577 0) (-0.805821 0.24093 0) (-0.767477 0.277744 0) (-0.65263 0.305265 0) (-0.432262 0.314644 0));
    }
    procBoundary6to4
    {
        type            processor;
        value           nonuniform List<vector> 5((-0.0706655 0.296802 0) (0.478011 0.24568 0) (1.26994 0.163179 0) (2.36027 0.0694733 0) (3.74728 0.0122183 0));
    }
    procBoundary6to5
    {
        type            processor;
        value           nonuniform List<vector> 4((-0.774415 0.0235517 0) (-0.781697 -0.126374 0) (-0.7646 -0.281519 0) (-0.719049 -0.434055 0));
    }
    procBoundary6to8
    {
        type            processor;
        value           nonuniform List<vector> 4((-0.72035 -0.663127 0) (-0.780305 -0.748684 0) (-0.799291 -0.814646 0) (-0.746485 -0.847767 0));
    }
    procBoundary6to9
    {
        type            processor;
        value           nonuniform List<vector> 6((-0.581175 -0.832927 0) (-0.256796 -0.757361 0) (0.276289 -0.614512 0) (1.06894 -0.412469 0) (2.17476 -0.193488 0) (3.62401 -0.0436164 0));
    }
}


// ************************************************************************* //
