/*--------------------------------*- C++ -*----------------------------------*\
  =========                 |
  \\      /  F ield         | OpenFOAM: The Open Source CFD Toolbox
   \\    /   O peration     | Website:  https://openfoam.org
    \\  /    A nd           | Version:  8
     \\/     M anipulation  |
\*---------------------------------------------------------------------------*/
FoamFile
{
    version     2.0;
    format      ascii;
    class       volScalarField;
    location    "1";
    object      p;
}
// * * * * * * * * * * * * * * * * * * * * * * * * * * * * * * * * * * * * * //

dimensions      [0 2 -2 0 0 0 0];

internalField   nonuniform List<scalar> 
400
(
-0.0991804
-0.198169
-0.251316
-0.276695
-0.280329
-0.268115
-0.243174
-0.206096
-0.159525
-0.106451
-0.0491088
0.0103181
0.0690635
0.123985
0.172208
0.211686
0.241424
0.261408
0.272418
0.27608
-0.198556
-0.239031
-0.268561
-0.283711
-0.282696
-0.267842
-0.2415
-0.204363
-0.158616
-0.106617
-0.0501839
0.00866075
0.0671361
0.121967
0.170086
0.209273
0.238458
0.257567
0.266965
0.266612
-0.250254
-0.268463
-0.280268
-0.284671
-0.277343
-0.259994
-0.233924
-0.198828
-0.15625
-0.10797
-0.0551359
0.000791624
0.0572277
0.110669
0.157568
0.195275
0.22261
0.239714
0.247155
0.245402
-0.273261
-0.28076
-0.280765
-0.27657
-0.263945
-0.244817
-0.22007
-0.188573
-0.151245
-0.109248
-0.0628197
-0.0124795
0.0396843
0.0900348
0.134472
0.169785
0.194541
0.209006
0.214092
0.210838
-0.278087
-0.279118
-0.27167
-0.261078
-0.244118
-0.22357
-0.200485
-0.173165
-0.142043
-0.107961
-0.0703667
-0.0286044
0.0161568
0.0605335
0.100146
0.131397
0.152619
0.16399
0.166722
0.16225
-0.270399
-0.267693
-0.255784
-0.241103
-0.221165
-0.199789
-0.17869
-0.155802
-0.131052
-0.105486
-0.0783501
-0.0478688
-0.0138029
0.0214091
0.0536849
0.0793324
0.0964086
0.104703
0.105672
0.100925
-0.255825
-0.251888
-0.238318
-0.222273
-0.201304
-0.180016
-0.161225
-0.142814
-0.12372
-0.105642
-0.088767
-0.070861
-0.0500092
-0.0268277
-0.00416421
0.0147563
0.0277195
0.0337102
0.0341254
0.0304041
-0.239693
-0.236851
-0.224559
-0.210347
-0.19104
-0.171317
-0.155368
-0.141981
-0.12793
-0.115253
-0.10641
-0.100119
-0.093103
-0.0834152
-0.0715624
-0.0595137
-0.0496555
-0.0443238
-0.0428601
-0.0446128
-0.224435
-0.224948
-0.216943
-0.208267
-0.194498
-0.179159
-0.167211
-0.160769
-0.152995
-0.144374
-0.140241
-0.142176
-0.146785
-0.14949
-0.147594
-0.140963
-0.131934
-0.124729
-0.120553
-0.120542
-0.208277
-0.213838
-0.212801
-0.21348
-0.210373
-0.204593
-0.19872
-0.202525
-0.205412
-0.202818
-0.201551
-0.20746
-0.219056
-0.230185
-0.234881
-0.230327
-0.218467
-0.205886
-0.197178
-0.196761
-0.185083
-0.196228
-0.20469
-0.218461
-0.231783
-0.244158
-0.248132
-0.265499
-0.285372
-0.295038
-0.298969
-0.306693
-0.320381
-0.334332
-0.340421
-0.333188
-0.313733
-0.291055
-0.274721
-0.274515
-0.145683
-0.162271
-0.184362
-0.21618
-0.251002
-0.293115
-0.314464
-0.347654
-0.388596
-0.417625
-0.432783
-0.444104
-0.457353
-0.469228
-0.471586
-0.457164
-0.425381
-0.386586
-0.356065
-0.352035
-0.081245
-0.104286
-0.148071
-0.207368
-0.266889
-0.347411
-0.398228
-0.450676
-0.511924
-0.562602
-0.594049
-0.612659
-0.625222
-0.631719
-0.626794
-0.603166
-0.556739
-0.49565
-0.43906
-0.418682
0.0130071
-0.0209209
-0.0965287
-0.197956
-0.286023
-0.398639
-0.487345
-0.567402
-0.649564
-0.72134
-0.771697
-0.799433
-0.807415
-0.801402
-0.784339
-0.751931
-0.693532
-0.607743
-0.510173
-0.452814
0.138468
0.0836116
-0.0259367
-0.174973
-0.303481
-0.425993
-0.541671
-0.658161
-0.774429
-0.877993
-0.957508
-0.999916
-0.98376
-0.941516
-0.89669
-0.852328
-0.788423
-0.684958
-0.539709
-0.425788
0.302307
0.209248
0.0779586
-0.0842683
-0.265911
-0.397414
-0.527709
-0.689917
-0.87544
-1.05224
-1.18719
-1.24042
-1.18301
-1.05177
-0.917991
-0.826488
-0.753776
-0.651965
-0.480456
-0.310085
0.525195
0.382711
0.239239
0.116687
-0.0926653
-0.292266
-0.515505
-0.782962
-1.07179
-1.33376
-1.51636
-1.57707
-1.49671
-1.26403
-0.954977
-0.669002
-0.483291
-0.390259
-0.26542
-0.0889038
0.837398
0.690165
0.543523
0.366792
0.0752326
-0.269935
-0.665344
-1.06757
-1.41622
-1.67894
-1.84496
-1.9088
-1.85992
-1.66517
-1.27433
-0.695535
-0.132184
0.200098
0.24755
0.314947
1.45453
1.25548
0.951713
0.481984
-0.106501
-0.645512
-1.08646
-1.44592
-1.73088
-1.94206
-2.08127
-2.14837
-2.13387
-2.00949
-1.72005
-1.17939
-0.310935
0.604545
1.10271
1.19933
2.09992
1.62302
0.830261
-0.0015019
-0.585001
-1.00279
-1.34187
-1.62778
-1.86078
-2.03868
-2.16136
-2.22754
-2.2287
-2.14442
-1.94168
-1.57541
-0.944705
0.126349
1.46164
2.18949
)
;

boundaryField
{
    movingWall
    {
        type            zeroGradient;
    }
    fixedWalls
    {
        type            zeroGradient;
    }
    frontAndBack
    {
        type            empty;
    }
}


// ************************************************************************* //
