/*--------------------------------*- C++ -*----------------------------------*\
  =========                 |
  \\      /  F ield         | OpenFOAM: The Open Source CFD Toolbox
   \\    /   O peration     | Website:  https://openfoam.org
    \\  /    A nd           | Version:  8
     \\/     M anipulation  |
\*---------------------------------------------------------------------------*/
FoamFile
{
    version     2.0;
    format      ascii;
    class       surfaceScalarField;
    location    "1";
    object      phi;
}
// * * * * * * * * * * * * * * * * * * * * * * * * * * * * * * * * * * * * * //

dimensions      [0 3 -1 0 0 0 0];

internalField   nonuniform List<scalar> 
760
(
6.40874e-08
-6.40596e-08
-1.33838e-07
1.97927e-07
-6.0133e-07
4.67495e-07
-1.24964e-06
6.48312e-07
-1.98602e-06
7.36375e-07
-2.72941e-06
7.43392e-07
-3.41093e-06
6.81513e-07
-3.97119e-06
5.6026e-07
-4.35851e-06
3.87328e-07
-4.53016e-06
1.71642e-07
-4.45689e-06
-7.3269e-08
-4.13e-06
-3.26881e-07
-3.56865e-06
-5.61351e-07
-2.825e-06
-7.43653e-07
-1.98448e-06
-8.4052e-07
-1.15881e-06
-8.2567e-07
-4.70568e-07
-6.88244e-07
-2.98264e-08
-4.40742e-07
1.0219e-07
-1.32014e-07
1.02193e-07
-1.96204e-07
1.32135e-07
-9.6598e-07
9.67711e-07
-2.25647e-06
1.75799e-06
-3.9056e-06
2.29744e-06
-5.72735e-06
2.55813e-06
-7.543e-06
2.55905e-06
-9.1911e-06
2.32961e-06
-1.05295e-05
1.89867e-06
-1.1437e-05
1.29486e-06
-1.18187e-05
5.53324e-07
-1.16158e-05
-2.76201e-07
-1.08185e-05
-1.12413e-06
-9.47896e-06
-1.90094e-06
-7.71815e-06
-2.50446e-06
-5.72394e-06
-2.83473e-06
-3.73404e-06
-2.81558e-06
-2.00241e-06
-2.41988e-06
-7.5009e-07
-1.69307e-06
-1.03259e-07
-7.78854e-07
-1.06348e-09
-5.0606e-07
6.38201e-07
-1.89211e-06
2.35376e-06
-3.96671e-06
3.83259e-06
-6.48948e-06
4.8202e-06
-9.20764e-06
5.27628e-06
-1.18791e-05
5.2305e-06
-1.42825e-05
4.73301e-06
-1.62216e-05
3.83775e-06
-1.75296e-05
2.60291e-06
-1.80778e-05
1.10147e-06
-1.77878e-05
-5.66139e-07
-1.66481e-05
-2.2638e-06
-1.47288e-05
-3.82032e-06
-1.21907e-05
-5.04252e-06
-9.28357e-06
-5.74186e-06
-6.32554e-06
-5.77361e-06
-3.66234e-06
-5.08307e-06
-1.60735e-06
-3.74806e-06
-3.71295e-07
-2.01491e-06
-3.72357e-07
-7.89333e-07
1.42754e-06
-2.76812e-06
4.33254e-06
-5.58689e-06
6.65136e-06
-8.91148e-06
8.14479e-06
-1.24266e-05
8.79137e-06
-1.58423e-05
8.64628e-06
-1.88974e-05
7.78811e-06
-2.13605e-05
6.30083e-06
-2.30343e-05
4.27667e-06
-2.37643e-05
1.83147e-06
-2.34529e-05
-8.7753e-07
-2.20771e-05
-3.63959e-06
-1.97069e-05
-6.19054e-06
-1.65192e-05
-8.2302e-06
-1.28009e-05
-9.46014e-06
-8.93279e-06
-9.64175e-06
-5.3484e-06
-8.66747e-06
-2.46895e-06
-6.6275e-06
-6.26141e-07
-3.85772e-06
-9.98497e-07
-1.04169e-06
2.46923e-06
-3.56942e-06
6.86027e-06
-7.0822e-06
1.01641e-05
-1.11491e-05
1.22117e-05
-1.53947e-05
1.3037e-05
-1.94908e-05
1.27424e-05
-2.31487e-05
1.1446e-05
-2.61146e-05
9.26671e-06
-2.81696e-05
6.33169e-06
-2.91366e-05
2.79845e-06
-2.88934e-05
-1.12075e-06
-2.73922e-05
-5.14079e-06
-2.46828e-05
-8.89996e-06
-2.0935e-05
-1.19779e-05
-1.64535e-05
-1.39416e-05
-1.1673e-05
-1.44222e-05
-7.12387e-06
-1.32166e-05
-3.36228e-06
-1.03891e-05
-8.76963e-07
-6.34304e-06
-1.87546e-06
-1.26664e-06
3.73586e-06
-4.29373e-06
9.88736e-06
-8.44296e-06
1.43134e-05
-1.31917e-05
1.69604e-05
-1.81097e-05
1.79551e-05
-2.28387e-05
1.74713e-05
-2.70729e-05
1.56802e-05
-3.0546e-05
1.27398e-05
-3.30244e-05
8.81011e-06
-3.43093e-05
4.08331e-06
-3.42474e-05
-1.18268e-06
-3.27512e-05
-6.63696e-06
-2.98282e-05
-1.1823e-05
-2.56153e-05
-1.61908e-05
-2.04118e-05
-1.91451e-05
-1.46955e-05
-2.01385e-05
-9.10296e-06
-1.88092e-05
-4.35809e-06
-1.5134e-05
-1.15168e-06
-9.54945e-06
-3.02714e-06
-1.46649e-06
5.20236e-06
-4.94033e-06
1.33612e-05
-9.66003e-06
1.90331e-05
-1.50197e-05
2.232e-05
-2.05423e-05
2.34777e-05
-2.58488e-05
2.27778e-05
-3.06276e-05
2.0459e-05
-3.46102e-05
1.67225e-05
-3.75565e-05
1.17564e-05
-3.92488e-05
5.77562e-06
-3.94985e-05
-9.33034e-07
-3.81649e-05
-7.97052e-06
-3.519e-05
-1.47979e-05
-3.06468e-05
-2.0734e-05
-2.47965e-05
-2.49955e-05
-1.81363e-05
-2.67987e-05
-1.14092e-05
-2.55363e-05
-5.54e-06
-2.10032e-05
-1.48263e-06
-1.36068e-05
-4.50977e-06
-1.64192e-06
6.84428e-06
-5.50624e-06
1.72255e-05
-1.07189e-05
2.42457e-05
-1.65988e-05
2.82e-05
-2.26318e-05
2.95107e-05
-2.84299e-05
2.85759e-05
-3.36888e-05
2.57179e-05
-3.81521e-05
2.11858e-05
-4.15849e-05
1.51892e-05
-4.37593e-05
7.94997e-06
-4.44528e-05
-2.39455e-07
-4.34639e-05
-8.95945e-06
-4.06477e-05
-1.7614e-05
-3.59779e-05
-2.54039e-05
-2.9631e-05
-3.13424e-05
-2.20788e-05
-3.43509e-05
-1.41486e-05
-3.34665e-05
-6.99161e-06
-2.81602e-05
-1.90385e-06
-1.86946e-05
-6.41363e-06
-1.79371e-06
8.63799e-06
-5.98945e-06
2.14213e-05
-1.16035e-05
2.98598e-05
-1.78845e-05
3.44811e-05
-2.42913e-05
3.59174e-05
-3.04416e-05
3.47262e-05
-3.6056e-05
3.13323e-05
-4.09082e-05
2.60381e-05
-4.47874e-05
1.90683e-05
-4.74717e-05
1.06343e-05
-4.8717e-05
1.00587e-06
-4.82629e-05
-9.41356e-06
-4.58645e-05
-2.00124e-05
-4.13606e-05
-2.99078e-05
-3.47839e-05
-3.79191e-05
-2.6507e-05
-4.26278e-05
-1.73824e-05
-4.25911e-05
-8.78726e-06
-3.67553e-05
-2.45096e-06
-2.50309e-05
-8.86459e-06
-1.92713e-06
1.05651e-05
-6.39826e-06
2.58924e-05
-1.23085e-05
3.577e-05
-1.88351e-05
4.10077e-05
-2.54209e-05
4.25033e-05
-3.17084e-05
4.10136e-05
-3.74649e-05
3.70889e-05
-4.25189e-05
3.10921e-05
-4.67088e-05
2.32582e-05
-4.98454e-05
1.37709e-05
-5.16876e-05
2.84806e-06
-5.19342e-05
-9.16699e-06
-5.02427e-05
-2.1704e-05
-4.6291e-05
-3.38595e-05
-3.9903e-05
-4.43071e-05
-3.12484e-05
-5.12823e-05
-2.10919e-05
-5.27476e-05
-1.09816e-05
-4.68655e-05
-3.16266e-06
-3.28498e-05
-1.20272e-05
-2.05918e-06
1.26243e-05
-6.76656e-06
3.05998e-05
-1.28581e-05
4.18615e-05
-1.94306e-05
4.75802e-05
-2.59263e-05
4.8999e-05
-3.2038e-05
4.71253e-05
-3.76089e-05
4.26598e-05
-4.25518e-05
3.6035e-05
-4.67863e-05
2.74927e-05
-5.0191e-05
1.71756e-05
-5.25659e-05
5.22293e-06
-5.36065e-05
-8.12636e-06
-5.28992e-05
-2.24113e-05
-4.99587e-05
-3.67999e-05
-4.43453e-05
-4.99205e-05
-3.59021e-05
-5.97255e-05
-2.5128e-05
-6.35218e-05
-1.35923e-05
-5.84012e-05
-4.08285e-06
-4.23593e-05
-1.61101e-05
-2.23016e-06
1.48545e-05
-7.17475e-06
3.55444e-05
-1.33274e-05
4.80141e-05
-1.96906e-05
5.39433e-05
-2.5733e-05
5.50414e-05
-3.12365e-05
5.26289e-05
-3.61583e-05
4.75816e-05
-4.05301e-05
4.04068e-05
-4.43876e-05
3.13501e-05
-4.77165e-05
2.05046e-05
-5.0406e-05
7.91242e-06
-5.22042e-05
-6.32819e-06
-5.26823e-05
-2.19331e-05
-5.12288e-05
-3.82535e-05
-4.71214e-05
-5.40279e-05
-3.97594e-05
-6.70875e-05
-2.91399e-05
-7.41413e-05
-1.65679e-05
-7.09732e-05
-5.2625e-06
-5.36647e-05
-2.13726e-05
-2.52236e-06
1.73768e-05
-7.77533e-06
4.07974e-05
-1.38583e-05
5.40971e-05
-1.96741e-05
5.97591e-05
-2.47752e-05
6.01425e-05
-2.90953e-05
5.6949e-05
-3.2755e-05
5.12413e-05
-3.59427e-05
4.35945e-05
-3.88426e-05
3.425e-05
-4.15832e-05
2.32451e-05
-4.41898e-05
1.05191e-05
-4.65291e-05
-3.98891e-06
-4.82413e-05
-2.0221e-05
-4.86744e-05
-3.78204e-05
-4.68721e-05
-5.58301e-05
-4.17266e-05
-7.2233e-05
-3.24796e-05
-8.33883e-05
-1.97302e-05
-8.37227e-05
-6.75802e-06
-6.66368e-05
-2.81306e-05
-3.08998e-06
2.04668e-05
-8.8154e-06
4.65228e-05
-1.46419e-05
5.99237e-05
-1.94215e-05
6.45387e-05
-2.29121e-05
6.3633e-05
-2.52994e-05
5.93363e-05
-2.69313e-05
5.28731e-05
-2.81886e-05
4.48518e-05
-2.94242e-05
3.54856e-05
-3.09282e-05
2.47492e-05
-3.28939e-05
1.24848e-05
-3.53634e-05
-1.51943e-06
-3.81417e-05
-1.74427e-05
-4.06706e-05
-3.52915e-05
-4.18997e-05
-5.4601e-05
-4.02692e-05
-7.38635e-05
-3.40812e-05
-8.95763e-05
-2.26705e-05
-9.51333e-05
-8.6137e-06
-8.06937e-05
-3.67443e-05
-4.20024e-06
2.4667e-05
-1.0621e-05
5.29435e-05
-1.57954e-05
6.50981e-05
-1.87433e-05
6.74866e-05
-1.96709e-05
6.45607e-05
-1.91646e-05
5.883e-05
-1.78689e-05
5.15774e-05
-1.63766e-05
4.33596e-05
-1.52035e-05
3.43125e-05
-1.47875e-05
2.43332e-05
-1.54847e-05
1.3182e-05
-1.75367e-05
5.32596e-07
-2.09889e-05
-1.39905e-05
-2.55318e-05
-3.07486e-05
-3.02546e-05
-4.98782e-05
-3.3383e-05
-7.07352e-05
-3.23033e-05
-9.0656e-05
-2.45545e-05
-0.000102882
-1.07875e-05
-9.44607e-05
-4.75318e-05
-6.24654e-06
3.09136e-05
-1.34049e-05
6.01019e-05
-1.69236e-05
6.86168e-05
-1.66373e-05
6.72003e-05
-1.36272e-05
6.15506e-05
-9.05118e-06
5.42539e-05
-3.88366e-06
4.64098e-05
1.10196e-06
3.8374e-05
5.28619e-06
3.01282e-05
8.14723e-06
2.14721e-05
9.22441e-06
1.21048e-05
8.11196e-06
1.64505e-06
4.50822e-06
-1.03868e-05
-1.64584e-06
-2.45945e-05
-9.86096e-06
-4.16631e-05
-1.85926e-05
-6.20035e-05
-2.47106e-05
-8.4538e-05
-2.3749e-05
-0.000103844
-1.29139e-05
-0.000105296
-6.04456e-05
-9.56115e-06
4.04747e-05
-1.64262e-05
6.69669e-05
-1.5821e-05
6.80115e-05
-9.88907e-06
6.12684e-05
-1.12549e-06
5.27871e-05
8.70423e-06
4.44242e-05
1.84201e-05
3.6694e-05
2.7225e-05
2.9569e-05
3.45422e-05
2.28111e-05
3.98967e-05
1.61176e-05
4.28386e-05
9.16289e-06
4.28997e-05
1.58402e-06
3.95919e-05
-7.07898e-06
3.24709e-05
-1.74735e-05
2.13801e-05
-3.05724e-05
7.05362e-06
-4.7677e-05
-7.76909e-06
-6.97152e-05
-1.7213e-05
-9.43998e-05
-1.37628e-05
-0.000108746
-7.42085e-05
-1.34304e-05
5.39051e-05
-1.50805e-05
6.8617e-05
-5.09685e-06
5.8028e-05
9.81195e-06
4.63596e-05
2.58431e-05
3.6756e-05
4.12125e-05
2.90548e-05
5.50401e-05
2.28663e-05
6.6862e-05
1.77472e-05
7.63897e-05
1.32834e-05
8.33719e-05
9.13541e-06
8.75141e-05
5.02067e-06
8.84243e-05
6.73832e-07
8.5577e-05
-4.23171e-06
7.82661e-05
-1.01626e-05
6.56629e-05
-1.79692e-05
4.71875e-05
-2.92016e-05
2.37938e-05
-4.63215e-05
7.10697e-07
-7.13167e-05
-1.02174e-05
-9.7818e-05
-8.44258e-05
-9.40899e-06
6.33141e-05
8.82292e-06
5.03851e-05
3.51829e-05
3.1668e-05
6.00386e-05
2.15039e-05
8.14865e-05
1.53081e-05
9.94557e-05
1.10856e-05
0.000114205
8.11714e-06
0.000126018
5.93424e-06
0.000135099
4.20213e-06
0.000141533
2.70144e-06
0.000145269
1.28479e-06
0.0001461
-1.57201e-07
0.000143635
-1.76688e-06
0.000137173
-3.70041e-06
0.000125542
-6.33829e-06
0.000106893
-1.05524e-05
7.90757e-05
-1.85044e-05
4.22921e-05
-3.4533e-05
6.89738e-06
-6.24233e-05
-7.75285e-05
6.33141e-05
0.000113699
0.000145367
0.000166871
0.000182179
0.000193265
0.000201382
0.000207316
0.000211518
0.00021422
0.000215504
0.000215347
0.00021358
0.00020988
0.000203542
0.000192989
0.000174485
0.000139952
7.75285e-05
)
;

boundaryField
{
    movingWall
    {
        type            calculated;
        value           uniform 0;
    }
    fixedWalls
    {
        type            calculated;
        value           uniform 0;
    }
    frontAndBack
    {
        type            empty;
        value           nonuniform List<scalar> 0();
    }
}


// ************************************************************************* //
