/*--------------------------------*- C++ -*----------------------------------*\
  =========                 |
  \\      /  F ield         | OpenFOAM: The Open Source CFD Toolbox
   \\    /   O peration     | Website:  https://openfoam.org
    \\  /    A nd           | Version:  8
     \\/     M anipulation  |
\*---------------------------------------------------------------------------*/
FoamFile
{
    version     2.0;
    format      ascii;
    class       volVectorField;
    location    "1";
    object      U;
}
// * * * * * * * * * * * * * * * * * * * * * * * * * * * * * * * * * * * * * //

dimensions      [0 1 -1 0 0 0 0];

internalField   nonuniform List<vector> 
400
(
(0.00120492 -0.00120705 0)
(0.00040294 0.000673653 0)
(-0.00645091 0.00286797 0)
(-0.0179693 0.00434102 0)
(-0.0321765 0.0050698 0)
(-0.0473003 0.00518601 0)
(-0.0618355 0.0048065 0)
(-0.0745001 0.00400785 0)
(-0.0841802 0.00283776 0)
(-0.0899182 0.00134581 0)
(-0.0909716 -0.000383527 0)
(-0.0869348 -0.00220731 0)
(-0.0778907 -0.00391685 0)
(-0.0645456 -0.00525339 0)
(-0.0482925 -0.00594673 0)
(-0.0311518 -0.00577397 0)
(-0.0155477 -0.00462928 0)
(-0.00390958 -0.00259462 0)
(0.00189214 -8.6664e-05 0)
(0.00157734 0.00152458 0)
(-0.000622655 -0.00051084 0)
(-0.0089633 0.00884132 0)
(-0.0300575 0.018405 0)
(-0.0603885 0.0249873 0)
(-0.0959866 0.0282408 0)
(-0.133178 0.0284715 0)
(-0.168548 0.0260757 0)
(-0.199047 0.0213998 0)
(-0.222021 0.014752 0)
(-0.235272 0.0065001 0)
(-0.237212 -0.00281665 0)
(-0.227098 -0.0124104 0)
(-0.205313 -0.0212368 0)
(-0.173576 -0.0280794 0)
(-0.135023 -0.0317306 0)
(-0.0940253 -0.0312567 0)
(-0.0556727 -0.0263071 0)
(-0.024922 -0.017414 0)
(-0.00570017 -0.00641549 0)
(0.000312595 0.00208316 0)
(-0.00307541 0.00649853 0)
(-0.0201063 0.0303341 0)
(-0.0555814 0.0520795 0)
(-0.102996 0.0669061 0)
(-0.156668 0.0740009 0)
(-0.211711 0.0737921 0)
(-0.263498 0.0670388 0)
(-0.307821 0.0545359 0)
(-0.341015 0.0371135 0)
(-0.360074 0.0158056 0)
(-0.362863 -0.00794557 0)
(-0.348411 -0.032156 0)
(-0.317249 -0.054309 0)
(-0.271673 -0.0715562 0)
(-0.215841 -0.0811277 0)
(-0.155575 -0.0809259 0)
(-0.0977144 -0.0702188 0)
(-0.0490475 -0.0502821 0)
(-0.0155801 -0.0250327 0)
(-0.00167176 -0.0026052 0)
(-0.00527228 0.0195518 0)
(-0.0305705 0.0642397 0)
(-0.0798811 0.101432 0)
(-0.143261 0.12596 0)
(-0.213224 0.137026 0)
(-0.283912 0.135381 0)
(-0.349863 0.12226 0)
(-0.406117 0.0990149 0)
(-0.448353 0.0671344 0)
(-0.472999 0.0284945 0)
(-0.477462 -0.014342 0)
(-0.460456 -0.0579296 0)
(-0.422376 -0.0979588 0)
(-0.365654 -0.129571 0)
(-0.29496 -0.148011 0)
(-0.217106 -0.149593 0)
(-0.140423 -0.132854 0)
(-0.0736229 -0.0996091 0)
(-0.0253407 -0.0557576 0)
(-0.00346104 -0.0125731 0)
(-0.00717347 0.0379711 0)
(-0.0400238 0.10954 0)
(-0.102252 0.165047 0)
(-0.180492 0.200214 0)
(-0.265451 0.214984 0)
(-0.350417 0.210816 0)
(-0.429334 0.189613 0)
(-0.49676 0.15338 0)
(-0.547948 0.104313 0)
(-0.578889 0.0451623 0)
(-0.586519 -0.0203529 0)
(-0.569042 -0.0872569 0)
(-0.526377 -0.149303 0)
(-0.460634 -0.199347 0)
(-0.376533 -0.230206 0)
(-0.281561 -0.236011 0)
(-0.185522 -0.213905 0)
(-0.099418 -0.165657 0)
(-0.0352342 -0.0987715 0)
(-0.00511025 -0.0275248 0)
(-0.00883672 0.0611631 0)
(-0.0484998 0.16533 0)
(-0.122552 0.241968 0)
(-0.214441 0.288689 0)
(-0.313172 0.306922 0)
(-0.411313 0.299306 0)
(-0.502399 0.268664 0)
(-0.580732 0.217742 0)
(-0.641313 0.149432 0)
(-0.679793 0.0672724 0)
(-0.692579 -0.0239737 0)
(-0.677158 -0.117888 0)
(-0.632587 -0.206263 0)
(-0.560151 -0.279434 0)
(-0.464098 -0.327259 0)
(-0.352204 -0.340836 0)
(-0.235693 -0.314873 0)
(-0.128284 -0.250132 0)
(-0.0462079 -0.155202 0)
(-0.00687339 -0.0476273 0)
(-0.0103022 0.088604 0)
(-0.0560429 0.230604 0)
(-0.140696 0.331014 0)
(-0.244818 0.390171 0)
(-0.355891 0.411722 0)
(-0.465921 0.399993 0)
(-0.568251 0.359009 0)
(-0.657146 0.292341 0)
(-0.727561 0.203499 0)
(-0.774919 0.0966228 0)
(-0.795103 -0.022747 0)
(-0.784703 -0.147005 0)
(-0.741547 -0.266118 0)
(-0.66554 -0.367765 0)
(-0.55978 -0.438278 0)
(-0.431713 -0.464644 0)
(-0.29367 -0.437646 0)
(-0.162381 -0.355543 0)
(-0.059416 -0.227139 0)
(-0.00904841 -0.0736683 0)
(-0.0115896 0.119798 0)
(-0.0626621 0.304272 0)
(-0.156547 0.430756 0)
(-0.271171 0.503075 0)
(-0.392683 0.527822 0)
(-0.512737 0.511554 0)
(-0.624739 0.459797 0)
(-0.723199 0.377033 0)
(-0.803295 0.26727 0)
(-0.860439 0.134963 0)
(-0.8901 -0.0139729 0)
(-0.887929 -0.171193 0)
(-0.850243 -0.325201 0)
(-0.774999 -0.461095 0)
(-0.663299 -0.561221 0)
(-0.521267 -0.607239 0)
(-0.361546 -0.584031 0)
(-0.203782 -0.485057 0)
(-0.0760871 -0.31771 0)
(-0.0119636 -0.107112 0)
(-0.0127192 0.154256 0)
(-0.0683853 0.385168 0)
(-0.169988 0.539508 0)
(-0.29296 0.625337 0)
(-0.422292 0.652983 0)
(-0.549533 0.631831 0)
(-0.668478 0.569259 0)
(-0.774251 0.470749 0)
(-0.862623 0.340677 0)
(-0.929361 0.183463 0)
(-0.96982 0.00487506 0)
(-0.978873 -0.186655 0)
(-0.951251 -0.37882 0)
(-0.882498 -0.554577 0)
(-0.77077 -0.692154 0)
(-0.619465 -0.766758 0)
(-0.440016 -0.754962 0)
(-0.254133 -0.64205 0)
(-0.0974815 -0.430984 0)
(-0.0160012 -0.150128 0)
(-0.0137589 0.19153 0)
(-0.0734029 0.472106 0)
(-0.181146 0.655297 0)
(-0.309824 0.754245 0)
(-0.443396 0.783963 0)
(-0.573626 0.757383 0)
(-0.69512 0.684142 0)
(-0.804081 0.570851 0)
(-0.89738 0.42213 0)
(-0.971655 0.242008 0)
(-1.02268 0.0355078 0)
(-1.04501 -0.189675 0)
(-1.03203 -0.421408 0)
(-0.976706 -0.64146 0)
(-0.873377 -0.824436 0)
(-0.720996 -0.938442 0)
(-0.527391 -0.949202 0)
(-0.314215 -0.829189 0)
(-0.124879 -0.571661 0)
(-0.0216489 -0.205636 0)
(-0.0149041 0.231366 0)
(-0.0783066 0.564064 0)
(-0.190742 0.7759 0)
(-0.321958 0.886284 0)
(-0.454981 0.916204 0)
(-0.582245 0.883034 0)
(-0.699741 0.799156 0)
(-0.80534 0.672477 0)
(-0.897618 0.507777 0)
(-0.974754 0.308377 0)
(-1.03367 0.0779675 0)
(-1.0694 -0.177408 0)
(-1.07469 -0.447077 0)
(-1.04025 -0.713173 0)
(-0.95614 -0.948106 0)
(-0.815145 -1.11329 0)
(-0.618279 -1.16157 0)
(-0.383255 -1.04694 0)
(-0.15953 -0.744474 0)
(-0.0295808 -0.277398 0)
(-0.0166142 0.274039 0)
(-0.0844474 0.660558 0)
(-0.200549 0.898961 0)
(-0.33052 1.01698 0)
(-0.456646 1.04349 0)
(-0.572806 1.00145 0)
(-0.677173 0.906496 0)
(-0.770011 0.768007 0)
(-0.852277 0.590868 0)
(-0.924414 0.377465 0)
(-0.985365 0.129681 0)
(-1.03167 -0.148951 0)
(-1.05663 -0.450648 0)
(-1.04974 -0.760006 0)
(-0.997154 -1.04981 0)
(-0.884318 -1.27687 0)
(-0.701888 -1.3808 0)
(-0.457787 -1.29135 0)
(-0.202477 -0.953113 0)
(-0.0407684 -0.370172 0)
(-0.0198526 0.321004 0)
(-0.0944528 0.762213 0)
(-0.213836 1.02205 0)
(-0.337773 1.14058 0)
(-0.448465 1.15751 0)
(-0.542618 1.1027 0)
(-0.621769 0.995487 0)
(-0.689425 0.846752 0)
(-0.749587 0.661409 0)
(-0.8056 0.440776 0)
(-0.859217 0.184668 0)
(-0.909614 -0.106495 0)
(-0.952147 -0.429096 0)
(-0.976918 -0.772542 0)
(-0.967759 -1.11361 0)
(-0.902998 -1.40887 0)
(-0.760081 -1.58734 0)
(-0.529877 -1.55091 0)
(-0.254039 -1.19827 0)
(-0.0566011 -0.489897 0)
(-0.0265054 0.376033 0)
(-0.112909 0.871408 0)
(-0.235487 1.14231 0)
(-0.346308 1.24926 0)
(-0.429475 1.24705 0)
(-0.487049 1.17374 0)
(-0.525605 1.05238 0)
(-0.55283 0.895026 0)
(-0.576267 0.706363 0)
(-0.602494 0.48654 0)
(-0.636513 0.233313 0)
(-0.680958 -0.0561476 0)
(-0.734742 -0.383113 0)
(-0.790917 -0.743815 0)
(-0.833964 -1.12315 0)
(-0.837552 -1.48394 0)
(-0.765398 -1.75186 0)
(-0.584437 -1.80265 0)
(-0.312477 -1.47414 0)
(-0.0788624 -0.643629 0)
(-0.040007 0.4471 0)
(-0.146914 0.992513 0)
(-0.270661 1.25502 0)
(-0.355551 1.33122 0)
(-0.392821 1.29655 0)
(-0.394173 1.19771 0)
(-0.373326 1.06042 0)
(-0.342902 0.89683 0)
(-0.314026 0.71072 0)
(-0.296236 0.500888 0)
(-0.29752 0.263265 0)
(-0.324056 -0.00777012 0)
(-0.379188 -0.318143 0)
(-0.461139 -0.671761 0)
(-0.559029 -1.06508 0)
(-0.647091 -1.47492 0)
(-0.679147 -1.83578 0)
(-0.595103 -2.00842 0)
(-0.370573 -1.76275 0)
(-0.108928 -0.838564 0)
(-0.0657173 0.549507 0)
(-0.204756 1.1302 0)
(-0.318368 1.3491 0)
(-0.351068 1.3667 0)
(-0.31329 1.28379 0)
(-0.232444 1.15334 0)
(-0.131005 1.00067 0)
(-0.0262662 0.835701 0)
(0.0680948 0.660015 0)
(0.140879 0.47068 0)
(0.182398 0.262173 0)
(0.183955 0.0270862 0)
(0.138155 -0.243748 0)
(0.040508 -0.560818 0)
(-0.106543 -0.93317 0)
(-0.285261 -1.35818 0)
(-0.449462 -1.7949 0)
(-0.517804 -2.11292 0)
(-0.407811 -2.02703 0)
(-0.144234 -1.08087 0)
(-0.108548 0.712163 0)
(-0.28608 1.28081 0)
(-0.348971 1.39364 0)
(-0.276119 1.3181 0)
(-0.119757 1.17518 0)
(0.0729636 1.01435 0)
(0.272909 0.854004 0)
(0.461282 0.69821 0)
(0.62497 0.544613 0)
(0.75388 0.388155 0)
(0.839059 0.222391 0)
(0.871478 0.0395287 0)
(0.841551 -0.170444 0)
(0.73944 -0.421216 0)
(0.557436 -0.731303 0)
(0.297877 -1.12004 0)
(-0.00897225 -1.58568 0)
(-0.281519 -2.04326 0)
(-0.376067 -2.20067 0)
(-0.167794 -1.37384 0)
(-0.155432 0.978479 0)
(-0.340101 1.40049 0)
(-0.237118 1.30648 0)
(0.0334683 1.1148 0)
(0.355065 0.923804 0)
(0.674859 0.754354 0)
(0.96987 0.608699 0)
(1.2282 0.481936 0)
(1.44304 0.367137 0)
(1.60945 0.257529 0)
(1.7223 0.146756 0)
(1.77496 0.0282564 0)
(1.75847 -0.106051 0)
(1.66064 -0.268171 0)
(1.46557 -0.4782 0)
(1.15703 -0.768894 0)
(0.731329 -1.1807 0)
(0.228244 -1.71343 0)
(-0.173245 -2.15959 0)
(-0.118906 -1.6751 0)
(-0.0475468 1.26954 0)
(-0.072033 1.31692 0)
(0.411498 0.969009 0)
(0.958304 0.709593 0)
(1.42966 0.529384 0)
(1.82332 0.398457 0)
(2.14946 0.301172 0)
(2.4144 0.22616 0)
(2.62293 0.164607 0)
(2.77808 0.110129 0)
(2.88031 0.0580162 0)
(2.92719 0.00428925 0)
(2.91299 -0.055292 0)
(2.82722 -0.127358 0)
(2.65206 -0.224392 0)
(2.35861 -0.373299 0)
(1.90199 -0.630409 0)
(1.22467 -1.07926 0)
(0.452896 -1.68864 0)
(0.217531 -1.7019 0)
(1.43837 0.707253 0)
(1.83584 0.626625 0)
(2.56353 0.39831 0)
(3.13766 0.251689 0)
(3.5121 0.164271 0)
(3.76932 0.109441 0)
(3.9569 0.0740109 0)
(4.09529 0.0502444 0)
(4.19545 0.0331265 0)
(4.26382 0.0195264 0)
(4.30349 0.00749485 0)
(4.31498 -0.0043062 0)
(4.29642 -0.0169552 0)
(4.24305 -0.0321753 0)
(4.14506 -0.0531827 0)
(3.98131 -0.0879873 0)
(3.70256 -0.158364 0)
(3.17447 -0.316172 0)
(2.29962 -0.622781 0)
(1.66833 -0.779902 0)
)
;

boundaryField
{
    movingWall
    {
        type            fixedValue;
        value           uniform (5.0743 0 0);
    }
    fixedWalls
    {
        type            noSlip;
    }
    frontAndBack
    {
        type            empty;
    }
}


// ************************************************************************* //
