/*--------------------------------*- C++ -*----------------------------------*\
  =========                 |
  \\      /  F ield         | OpenFOAM: The Open Source CFD Toolbox
   \\    /   O peration     | Website:  https://openfoam.org
    \\  /    A nd           | Version:  9
     \\/     M anipulation  |
\*---------------------------------------------------------------------------*/
FoamFile
{
    format      ascii;
    class       surfaceScalarField;
    location    "0.035";
    object      phi;
}
// * * * * * * * * * * * * * * * * * * * * * * * * * * * * * * * * * * * * * //

dimensions      [0 3 -1 0 0 0 0];

internalField   nonuniform List<scalar> 
67
(
-1.94587e-06
3.88986e-07
-2.31717e-06
3.71296e-07
-2.65571e-06
3.38545e-07
-2.91631e-06
2.60591e-07
1.30344e-07
-4.68623e-06
1.32402e-06
-5.54398e-06
1.22905e-06
-6.27436e-06
1.06892e-06
-6.80364e-06
7.8987e-07
3.91983e-07
-6.88135e-06
2.63647e-06
-8.06491e-06
2.4126e-06
-9.04253e-06
2.04654e-06
-9.72597e-06
1.47331e-06
7.1353e-07
-8.73041e-06
4.25988e-06
-1.01824e-05
3.86463e-06
-1.13678e-05
3.23188e-06
-1.21844e-05
2.28996e-06
1.08973e-06
-1.03052e-05
6.16163e-06
-1.2005e-05
5.56442e-06
-1.33924e-05
4.6193e-06
-1.43527e-05
3.25018e-06
1.54458e-06
-1.16735e-05
8.32246e-06
-1.36131e-05
7.50399e-06
-1.52082e-05
6.21442e-06
-1.63383e-05
4.38029e-06
2.13099e-06
-1.29463e-05
1.07367e-05
-1.51264e-05
9.68415e-06
-1.6937e-05
8.02503e-06
-1.82704e-05
5.71367e-06
2.89427e-06
-1.44268e-05
-1.68683e-05
-1.88884e-05
-2.03838e-05
)
;

boundaryField
{
    movingWall
    {
        type            calculated;
        value           nonuniform List<scalar> 0();
    }
    fixedWalls
    {
        type            calculated;
        value           uniform 0;
    }
    frontAndBack
    {
        type            empty;
        value           nonuniform List<scalar> 0();
    }
    procBoundary2to0
    {
        type            processor;
        value           nonuniform List<scalar> 8(1.55689e-06 3.75119e-06 5.5689e-06 7.107e-06 8.40349e-06 9.51268e-06 1.0532e-05 1.17107e-05);
    }
    procBoundary2to3
    {
        type            processor;
        value           nonuniform List<scalar> 5(1.34527e-05 1.21257e-05 1.00451e-05 7.20907e-06 3.79318e-06);
    }
    procBoundary2to5
    {
        type            processor;
        value           nonuniform List<scalar> 8(-3.04665e-06 -7.06528e-06 -1.00475e-05 -1.25606e-05 -1.48075e-05 -1.69247e-05 -1.90337e-05 -2.12827e-05);
    }
}


// ************************************************************************* //
