/*--------------------------------*- C++ -*----------------------------------*\
| =========                 |                                                 |
| \\      /  F ield         | OpenFOAM: The Open Source CFD Toolbox           |
|  \\    /   O peration     | Version:  2212                                  |
|   \\  /    A nd           | Website:  www.openfoam.com                      |
|    \\/     M anipulation  |                                                 |
\*---------------------------------------------------------------------------*/
FoamFile
{
    version     2.0;
    format      ascii;
    arch        "LSB;label=32;scalar=64";
    class       volVectorField;
    location    "0.4";
    object      U;
}
// * * * * * * * * * * * * * * * * * * * * * * * * * * * * * * * * * * * * * //

dimensions      [0 1 -1 0 0 0 0];

internalField   nonuniform List<vector> 
44
(
(0.128291 0 0)
(0.114953 0 0)
(0.0986722 0 0)
(0.0797696 0 0)
(0.0586685 0 0)
(0.0358988 0 0)
(0.154391 0 0)
(0.138543 0 0)
(0.119114 0 0)
(0.0964487 0 0)
(0.0710354 0 0)
(0.0435121 0 0)
(0.0146559 0 0)
(0.184316 0 0)
(0.165729 0 0)
(0.142801 0 0)
(0.115884 0 0)
(0.0855184 0 0)
(0.0524618 0 0)
(0.0176848 0 0)
(0.218799 0 0)
(0.197266 0 0)
(0.170489 0 0)
(0.138778 0 0)
(0.102698 0 0)
(0.0631356 0 0)
(0.021308 0 0)
(0.25867 0 0)
(0.234058 0 0)
(0.203122 0 0)
(0.166049 0 0)
(0.123367 0 0)
(0.0760784 0 0)
(0.0257207 0 0)
(0.304861 0 0)
(0.277188 0 0)
(0.241904 0 0)
(0.198936 0 0)
(0.148647 0 0)
(0.0920943 0 0)
(0.0312184 0 0)
(0.180198 0 0)
(0.112437 0 0)
(0.0382784 0 0)
)
;

boundaryField
{
    movingWall
    {
        type            fixedValue;
        value           nonuniform List<vector> 0();
    }
    fixedWalls
    {
        type            noSlip;
    }
    frontAndBack
    {
        type            empty;
    }
    procBoundary5to2
    {
        type            processor;
        value           nonuniform List<vector> 8((0.105377 0 0) (0.0943186 0 0) (0.0808659 0 0) (0.0652993 0 0) (0.0479778 0 0) (0.0293355 0 0) (0.0120846 0 0) (0.0120846 0 0));
    }
    procBoundary5to4
    {
        type            processor;
        value           nonuniform List<vector> 6((0.138466 0 0) (0.166433 0 0) (0.198366 0 0) (0.234962 0 0) (0.276978 0 0) (0.325211 0 0));
    }
    procBoundary5to8
    {
        type            processor;
        value           nonuniform List<vector> 8((0.358401 0 0) (0.327944 0 0) (0.288383 0 0) (0.239155 0 0) (0.239155 0 0) (0.220562 0 0) (0.139181 0 0) (0.047738 0 0));
    }
}


// ************************************************************************* //
