/*--------------------------------*- C++ -*----------------------------------*\
  =========                 |
  \\      /  F ield         | OpenFOAM: The Open Source CFD Toolbox
   \\    /   O peration     | Website:  https://openfoam.org
    \\  /    A nd           | Version:  9
     \\/     M anipulation  |
\*---------------------------------------------------------------------------*/
FoamFile
{
    format      ascii;
    class       surfaceScalarField;
    location    "0.025";
    object      phi;
}
// * * * * * * * * * * * * * * * * * * * * * * * * * * * * * * * * * * * * * //

dimensions      [0 3 -1 0 0 0 0];

internalField   nonuniform List<scalar> 
67
(
-1.85146e-06
-3.63952e-07
-1.3869e-06
-4.64555e-07
-8.78e-07
-5.08901e-07
-4.06538e-07
-4.71461e-07
-6.83119e-08
-3.38226e-07
-6.83117e-08
-4.08741e-06
-1.14005e-06
-3.13617e-06
-1.41579e-06
-2.10032e-06
-1.54476e-06
-1.11546e-06
-1.45632e-06
-3.37009e-07
-1.11668e-06
-4.0532e-07
-5.54073e-06
-2.18453e-06
-4.28716e-06
-2.66936e-06
-2.92276e-06
-2.90916e-06
-1.60404e-06
-2.77504e-06
-5.20537e-07
-2.20018e-06
-9.25857e-07
-6.65678e-06
-3.45528e-06
-5.15908e-06
-4.16706e-06
-3.54291e-06
-4.52533e-06
-1.9625e-06
-4.35545e-06
-6.45906e-07
-3.51677e-06
-1.57176e-06
-7.60227e-06
-4.93851e-06
-5.86442e-06
-5.90491e-06
-4.01032e-06
-6.37943e-06
-2.22618e-06
-6.13959e-06
-7.32177e-07
-5.01078e-06
-2.30394e-06
-8.59212e-06
-6.5813e-06
-4.47561e-06
-8.48512e-06
-2.44576e-06
-8.16944e-06
-7.90927e-07
-6.66561e-06
-3.09487e-06
-5.16595e-06
-2.79045e-06
-8.77666e-07
)
;

boundaryField
{
    movingWall
    {
        type            calculated;
        value           nonuniform List<scalar> 0();
    }
    fixedWalls
    {
        type            calculated;
        value           uniform 0;
    }
    frontAndBack
    {
        type            empty;
        value           nonuniform List<scalar> 0();
    }
    procBoundary7to5
    {
        type            processor;
        value           nonuniform List<scalar> 6(2.21541e-06 4.86351e-06 6.58519e-06 7.92754e-06 9.08549e-06 1.03121e-05);
    }
    procBoundary7to8
    {
        type            processor;
        value           nonuniform List<scalar> 7(-6.65849e-06 -7.91573e-06 7.67438e-06 -1.09935e-05 -1.05449e-05 -8.57839e-06 -3.97253e-06);
    }
}


// ************************************************************************* //
