/*--------------------------------*- C++ -*----------------------------------*\
  =========                 |
  \\      /  F ield         | OpenFOAM: The Open Source CFD Toolbox
   \\    /   O peration     | Website:  https://openfoam.org
    \\  /    A nd           | Version:  9
     \\/     M anipulation  |
\*---------------------------------------------------------------------------*/
FoamFile
{
    format      ascii;
    class       surfaceScalarField;
    location    "0.05";
    object      phi;
}
// * * * * * * * * * * * * * * * * * * * * * * * * * * * * * * * * * * * * * //

dimensions      [0 3 -1 0 0 0 0];

internalField   nonuniform List<scalar> 
67
(
1.67695e-08
-2.04171e-08
-1.11266e-07
1.28036e-07
-3.70004e-07
2.58736e-07
-7.65669e-07
3.95665e-07
4.78634e-07
-2.48506e-07
2.2809e-07
-8.79631e-07
7.59157e-07
-1.77966e-06
1.15876e-06
-2.88002e-06
1.49602e-06
1.68242e-06
-5.18591e-07
7.4668e-07
-1.66729e-06
1.90785e-06
-3.1958e-06
2.68728e-06
-4.93736e-06
3.23758e-06
3.49557e-06
-6.70868e-07
1.41755e-06
-2.2214e-06
3.45838e-06
-4.2853e-06
4.75117e-06
-6.59178e-06
5.54406e-06
5.84917e-06
-7.78885e-07
2.19643e-06
-2.65214e-06
5.33163e-06
-5.17145e-06
7.27049e-06
-7.97462e-06
8.34723e-06
8.68832e-06
-8.80255e-07
3.07669e-06
-3.04019e-06
7.49157e-06
-5.96259e-06
1.01929e-05
-9.21276e-06
1.15974e-05
1.1973e-05
-9.88421e-07
4.06511e-06
-3.42772e-06
9.93087e-06
-6.73258e-06
1.34977e-05
-1.04052e-05
1.527e-05
1.56831e-05
-1.11644e-06
-3.86272e-06
-7.56799e-06
-1.16753e-05
)
;

boundaryField
{
    movingWall
    {
        type            calculated;
        value           nonuniform List<scalar> 0();
    }
    fixedWalls
    {
        type            calculated;
        value           uniform 0;
    }
    frontAndBack
    {
        type            empty;
        value           nonuniform List<scalar> 0();
    }
    procBoundary0to1
    {
        type            processor;
        value           nonuniform List<scalar> 5(5.18155e-06 1.26772e-05 1.7203e-05 1.93773e-05 1.98249e-05);
    }
    procBoundary0to2
    {
        type            processor;
        value           nonuniform List<scalar> 8(-1.24431e-06 -4.08381e-06 -6.75051e-06 -8.94537e-06 -1.08138e-05 -1.24975e-05 -1.41153e-05 -1.58171e-05);
    }
}


// ************************************************************************* //
