/*--------------------------------*- C++ -*----------------------------------*\
  =========                 |
  \\      /  F ield         | OpenFOAM: The Open Source CFD Toolbox
   \\    /   O peration     | Website:  https://openfoam.org
    \\  /    A nd           | Version:  9
     \\/     M anipulation  |
\*---------------------------------------------------------------------------*/
FoamFile
{
    format      ascii;
    class       volScalarField;
    location    "0.015";
    object      p;
}
// * * * * * * * * * * * * * * * * * * * * * * * * * * * * * * * * * * * * * //

dimensions      [0 2 -2 0 0 0 0];

internalField   nonuniform List<scalar> 
40
(
1.01586
0.956204
0.952867
1.00308
1.08779
0.906395
0.83172
0.829383
0.887417
0.977881
0.755448
0.663322
0.667505
0.537756
0.434596
0.458242
0.219007
0.112168
0.166135
-0.238675
-0.335261
-0.241415
-0.862765
-0.926394
-0.760331
-1.72352
-1.67758
-1.37074
-3.00349
-2.66026
-2.08211
-5.03145
-3.96809
-2.89468
-8.66302
-5.6474
-3.64524
-14.7924
-7.40037
-3.92284
)
;

boundaryField
{
    movingWall
    {
        type            zeroGradient;
    }
    fixedWalls
    {
        type            zeroGradient;
    }
    frontAndBack
    {
        type            empty;
    }
    procBoundary1to0
    {
        type            processor;
        value           nonuniform List<scalar> 5(1.08836 1.04113 1.0416 1.08777 1.17405);
    }
    procBoundary1to3
    {
        type            processor;
        value           nonuniform List<scalar> 8(1.19187 0.746276 1.08585 0.853898 0.746276 0.571643 0.333766 -0.0132356);
    }
    procBoundary1to4
    {
        type            processor;
        value           nonuniform List<scalar> 6(-0.458043 -0.943329 -1.45774 -1.98329 -2.36707 -2.34922);
    }
}


// ************************************************************************* //
