/*--------------------------------*- C++ -*----------------------------------*\
  =========                 |
  \\      /  F ield         | OpenFOAM: The Open Source CFD Toolbox
   \\    /   O peration     | Website:  https://openfoam.org
    \\  /    A nd           | Version:  9
     \\/     M anipulation  |
\*---------------------------------------------------------------------------*/
FoamFile
{
    format      ascii;
    class       volVectorField;
    location    "0.08";
    object      U;
}
// * * * * * * * * * * * * * * * * * * * * * * * * * * * * * * * * * * * * * //

dimensions      [0 1 -1 0 0 0 0];

internalField   nonuniform List<vector> 
40
(
(-0.941728 0.0689415 0)
(-0.966076 -0.149454 0)
(-0.963901 -0.380899 0)
(-0.928059 -0.612687 0)
(-0.919435 0.106565 0)
(-0.951398 -0.132801 0)
(-0.963825 -0.391863 0)
(-0.948577 -0.660098 0)
(-0.830237 0.146489 0)
(-0.86559 -0.105498 0)
(-0.892131 -0.383583 0)
(-0.902137 -0.681151 0)
(-0.651564 0.181693 0)
(-0.683388 -0.0711422 0)
(-0.720814 -0.354966 0)
(-0.75805 -0.668646 0)
(-0.358031 0.203108 0)
(-0.377603 -0.0362592 0)
(-0.419921 -0.308247 0)
(-0.482816 -0.618192 0)
(0.0810752 0.201277 0)
(0.0811363 -0.00855482 0)
(0.0411161 -0.248456 0)
(-0.0420966 -0.529603 0)
(0.704605 0.170129 0)
(0.726718 0.00577394 0)
(0.693881 -0.182069 0)
(0.598144 -0.407448 0)
(1.56142 0.111971 0)
(1.59792 0.00530976 0)
(1.57225 -0.115377 0)
(1.47334 -0.262871 0)
(2.69844 0.0437839 0)
(2.73052 -0.00403511 0)
(2.70753 -0.0570504 0)
(2.61923 -0.122798 0)
(4.10881 0.00526947 0)
(4.11545 -0.00491337 0)
(4.09536 -0.0157646 0)
(4.04431 -0.0293501 0)
)
;

boundaryField
{
    movingWall
    {
        type            fixedValue;
        value           uniform (4.88297 0 0);
    }
    fixedWalls
    {
        type            noSlip;
    }
    frontAndBack
    {
        type            empty;
    }
    procBoundary6to3
    {
        type            processor;
        value           nonuniform List<vector> 5((-0.887317 0.26286 0) (-0.864663 0.316214 0) (-0.78257 0.364776 0) (-0.620978 0.399562 0) (-0.355796 0.409478 0));
    }
    procBoundary6to4
    {
        type            processor;
        value           nonuniform List<vector> 5((0.0459622 0.38394 0) (0.629342 0.316296 0) (1.4554 0.209658 0) (2.5876 0.0894291 0) (4.0304 0.0157658 0));
    }
    procBoundary6to5
    {
        type            processor;
        value           nonuniform List<vector> 4((-0.906664 0.0361557 0) (-0.921124 -0.153828 0) (-0.905753 -0.350596 0) (-0.855135 -0.541089 0));
    }
    procBoundary6to8
    {
        type            processor;
        value           nonuniform List<vector> 4((-0.83987 -0.813509 0) (-0.883779 -0.906106 0) (-0.872129 -0.970038 0) (-0.773601 -0.99111 0));
    }
    procBoundary6to9
    {
        type            processor;
        value           nonuniform List<vector> 6((-0.55114 -0.955494 0) (-0.164706 -0.853363 0) (0.427725 -0.682086 0) (1.27161 -0.453058 0) (2.41943 -0.212372 0) (3.90566 -0.0486936 0));
    }
}


// ************************************************************************* //
