/*--------------------------------*- C++ -*----------------------------------*\
  =========                 |
  \\      /  F ield         | OpenFOAM: The Open Source CFD Toolbox
   \\    /   O peration     | Website:  https://openfoam.org
    \\  /    A nd           | Version:  9
     \\/     M anipulation  |
\*---------------------------------------------------------------------------*/
FoamFile
{
    format      ascii;
    class       volVectorField;
    location    "0.045";
    object      U;
}
// * * * * * * * * * * * * * * * * * * * * * * * * * * * * * * * * * * * * * //

dimensions      [0 1 -1 0 0 0 0];

internalField   nonuniform List<vector> 
40
(
(-0.394814 0.408553 0)
(-0.475965 0.369385 0)
(-0.544892 0.306866 0)
(-0.598539 0.22272 0)
(-0.633581 0.122245 0)
(-0.446083 0.496879 0)
(-0.53272 0.447373 0)
(-0.60455 0.370493 0)
(-0.658562 0.270085 0)
(-0.694495 0.152414 0)
(-0.288516 0.616374 0)
(-0.396565 0.621388 0)
(-0.497702 0.590975 0)
(-0.585862 0.52738 0)
(-0.656889 0.434 0)
(-0.709446 0.316388 0)
(-0.744184 0.182425 0)
(-0.327691 0.730138 0)
(-0.440092 0.729306 0)
(-0.539495 0.685918 0)
(-0.6223 0.60578 0)
(-0.686509 0.49429 0)
(-0.734278 0.360758 0)
(-0.76651 0.212637 0)
(-0.362893 0.846413 0)
(-0.470648 0.83341 0)
(-0.558975 0.773321 0)
(-0.626696 0.673944 0)
(-0.676897 0.54609 0)
(-0.713297 0.399034 0)
(-0.739303 0.240983 0)
(-0.388211 0.955148 0)
(-0.478452 0.920693 0)
(-0.542161 0.838773 0)
(-0.583745 0.720597 0)
(-0.610029 0.578785 0)
(-0.626122 0.424392 0)
(-0.637339 0.2609 0)
(-0.445852 0.425866 0)
(-0.435187 0.264834 0)
)
;

boundaryField
{
    movingWall
    {
        type            fixedValue;
        value           nonuniform List<vector> 0();
    }
    fixedWalls
    {
        type            noSlip;
    }
    frontAndBack
    {
        type            empty;
    }
    procBoundary3to1
    {
        type            processor;
        value           nonuniform List<vector> 8((-0.30827 0.426715 0) (-0.251442 0.513571 0) (-0.34997 0.518992 0) (-0.34997 0.518992 0) (-0.180277 0.568762 0) (-0.209689 0.679177 0) (-0.241193 0.800167 0) (-0.272372 0.925033 0));
    }
    procBoundary3to2
    {
        type            processor;
        value           nonuniform List<vector> 5((-0.352258 0.329861 0) (-0.425923 0.298343 0) (-0.48937 0.247342 0) (-0.539517 0.177704 0) (-0.572505 0.0937502 0));
    }
    procBoundary3to4
    {
        type            processor;
        value           nonuniform List<vector> 8((-0.397694 1.04552 0) (-0.451586 0.98073 0) (-0.472297 0.873152 0) (-0.472597 0.737683 0) (-0.459788 0.584857 0) (-0.459788 0.584857 0) (-0.137578 0.397171 0) (-0.0956013 0.246155 0));
    }
    procBoundary3to5
    {
        type            processor;
        value           nonuniform List<vector> 2((-0.655111 0.0123891 0) (-0.715949 0.0248595 0));
    }
    procBoundary3to6
    {
        type            processor;
        value           nonuniform List<vector> 5((-0.767249 0.0387076 0) (-0.791261 0.0551822 0) (-0.761145 0.0736658 0) (-0.65127 0.0901085 0) (-0.433051 0.0991798 0));
    }
}


// ************************************************************************* //
