/*--------------------------------*- C++ -*----------------------------------*\
  =========                 |
  \\      /  F ield         | OpenFOAM: The Open Source CFD Toolbox
   \\    /   O peration     | Website:  https://openfoam.org
    \\  /    A nd           | Version:  8
     \\/     M anipulation  |
\*---------------------------------------------------------------------------*/
FoamFile
{
    version     2.0;
    format      ascii;
    class       volScalarField;
    location    "1";
    object      p;
}
// * * * * * * * * * * * * * * * * * * * * * * * * * * * * * * * * * * * * * //

dimensions      [0 2 -2 0 0 0 0];

internalField   nonuniform List<scalar> 
400
(
-0.0991877
-0.198183
-0.251335
-0.276716
-0.280351
-0.268137
-0.243197
-0.206118
-0.159546
-0.106472
-0.0491285
0.0102992
0.0690453
0.123967
0.172191
0.211669
0.241407
0.261391
0.272402
0.276064
-0.198571
-0.239049
-0.26858
-0.283732
-0.282719
-0.267865
-0.241523
-0.204385
-0.158637
-0.106638
-0.0502036
0.00864188
0.0671178
0.121949
0.170069
0.209256
0.238441
0.25755
0.266948
0.266596
-0.250273
-0.268483
-0.28029
-0.284694
-0.277366
-0.260017
-0.233947
-0.19885
-0.156271
-0.10799
-0.0551555
0.000772786
0.0572094
0.110651
0.15755
0.195258
0.222593
0.239698
0.247139
0.245386
-0.273283
-0.280783
-0.280789
-0.276594
-0.26397
-0.244841
-0.220093
-0.188596
-0.151266
-0.109269
-0.0628393
-0.0124984
0.0396659
0.0900168
0.134454
0.169768
0.194524
0.208989
0.214076
0.210821
-0.278112
-0.279144
-0.271696
-0.261104
-0.244144
-0.223595
-0.200509
-0.173188
-0.142065
-0.107982
-0.0703865
-0.0286235
0.0161381
0.0605151
0.100128
0.131379
0.152601
0.163973
0.166705
0.162233
-0.270426
-0.26772
-0.255811
-0.24113
-0.221192
-0.199815
-0.178715
-0.155825
-0.131074
-0.105507
-0.0783701
-0.0478884
-0.0138221
0.0213901
0.0536663
0.0793141
0.0963908
0.104686
0.105655
0.100908
-0.255854
-0.251917
-0.238347
-0.222301
-0.201331
-0.180042
-0.16125
-0.142838
-0.123743
-0.105663
-0.0887875
-0.070881
-0.050029
-0.0268473
-0.00418349
0.0147375
0.0277012
0.0336925
0.0341083
0.0303873
-0.239723
-0.236881
-0.224588
-0.210376
-0.191067
-0.171343
-0.155393
-0.142005
-0.127953
-0.115274
-0.106431
-0.100139
-0.0931233
-0.0834353
-0.0715822
-0.0595329
-0.049674
-0.0443415
-0.042877
-0.0446292
-0.224466
-0.224979
-0.216973
-0.208296
-0.194526
-0.179185
-0.167236
-0.160793
-0.153018
-0.144396
-0.140262
-0.142197
-0.146805
-0.14951
-0.147614
-0.140982
-0.131952
-0.124746
-0.120569
-0.120558
-0.208309
-0.213869
-0.212831
-0.213509
-0.2104
-0.204619
-0.198745
-0.202549
-0.205434
-0.20284
-0.201572
-0.207481
-0.219076
-0.230204
-0.2349
-0.230345
-0.218484
-0.205902
-0.197193
-0.196775
-0.185115
-0.19626
-0.204721
-0.21849
-0.231811
-0.244184
-0.248156
-0.265522
-0.285394
-0.29506
-0.29899
-0.306714
-0.320401
-0.33435
-0.340438
-0.333204
-0.313748
-0.291069
-0.274734
-0.274528
-0.145717
-0.162304
-0.184394
-0.216209
-0.251029
-0.29314
-0.314487
-0.347675
-0.388617
-0.417646
-0.432803
-0.444124
-0.457372
-0.469245
-0.471601
-0.457177
-0.425393
-0.386597
-0.356076
-0.352046
-0.081281
-0.104321
-0.148104
-0.207398
-0.266916
-0.347435
-0.39825
-0.450695
-0.511942
-0.56262
-0.594067
-0.612676
-0.625238
-0.631733
-0.626806
-0.603175
-0.556748
-0.495658
-0.439069
-0.418692
0.0129682
-0.0209584
-0.0965634
-0.197987
-0.28605
-0.398663
-0.487364
-0.567419
-0.649578
-0.721354
-0.771711
-0.799446
-0.807429
-0.801414
-0.784348
-0.751938
-0.693537
-0.607749
-0.510181
-0.452823
0.138425
0.0835704
-0.0259741
-0.175006
-0.303509
-0.426015
-0.54169
-0.658175
-0.77444
-0.878001
-0.957514
-0.999924
-0.983771
-0.941527
-0.896699
-0.852335
-0.788428
-0.684963
-0.539715
-0.425797
0.302258
0.209202
0.077918
-0.0843031
-0.26594
-0.397438
-0.527727
-0.68993
-0.875449
-1.05225
-1.18719
-1.24042
-1.18302
-1.05178
-0.918001
-0.8265
-0.753786
-0.651973
-0.480464
-0.310097
0.525141
0.38266
0.239194
0.116649
-0.0926972
-0.292294
-0.515527
-0.782977
-1.0718
-1.33376
-1.51636
-1.57706
-1.4967
-1.26402
-0.954979
-0.669017
-0.483311
-0.390278
-0.265436
-0.0889229
0.837338
0.690109
0.543471
0.366745
0.0751926
-0.269968
-0.665368
-1.06759
-1.41622
-1.67893
-1.84494
-1.90878
-1.8599
-1.66515
-1.27431
-0.695537
-0.132208
0.20006
0.247513
0.31491
1.45445
1.25541
0.95165
0.481929
-0.106544
-0.64554
-1.08648
-1.44592
-1.73087
-1.94204
-2.08124
-2.14834
-2.13384
-2.00946
-1.72002
-1.17938
-0.310944
0.604501
1.10265
1.19926
2.09983
1.62294
0.830195
-0.00154564
-0.585029
-1.0028
-1.34188
-1.62778
-1.86076
-2.03866
-2.16134
-2.22751
-2.22866
-2.14439
-1.94165
-1.57539
-0.944702
0.126321
1.46157
2.1894
)
;

boundaryField
{
    movingWall
    {
        type            zeroGradient;
    }
    fixedWalls
    {
        type            zeroGradient;
    }
    frontAndBack
    {
        type            empty;
    }
}


// ************************************************************************* //
