/*--------------------------------*- C++ -*----------------------------------*\
  =========                 |
  \\      /  F ield         | OpenFOAM: The Open Source CFD Toolbox
   \\    /   O peration     | Website:  https://openfoam.org
    \\  /    A nd           | Version:  8
     \\/     M anipulation  |
\*---------------------------------------------------------------------------*/
FoamFile
{
    version     2.0;
    format      ascii;
    class       surfaceScalarField;
    location    "1";
    object      phi;
}
// * * * * * * * * * * * * * * * * * * * * * * * * * * * * * * * * * * * * * //

dimensions      [0 3 -1 0 0 0 0];

internalField   nonuniform List<scalar> 
760
(
6.40896e-08
-6.40604e-08
-1.33842e-07
1.97932e-07
-6.01345e-07
4.67507e-07
-1.24967e-06
6.48328e-07
-1.98607e-06
7.36393e-07
-2.72948e-06
7.4341e-07
-3.41101e-06
6.8153e-07
-3.97128e-06
5.60275e-07
-4.35862e-06
3.87339e-07
-4.53027e-06
1.71647e-07
-4.457e-06
-7.327e-08
-4.13011e-06
-3.26889e-07
-3.56874e-06
-5.61366e-07
-2.82507e-06
-7.43674e-07
-1.98453e-06
-8.40543e-07
-1.15884e-06
-8.25692e-07
-4.70577e-07
-6.88262e-07
-2.98246e-08
-4.40752e-07
1.02193e-07
-1.32016e-07
1.02196e-07
-1.96209e-07
1.3214e-07
-9.66005e-07
9.67736e-07
-2.25653e-06
1.75803e-06
-3.90569e-06
2.2975e-06
-5.72749e-06
2.55819e-06
-7.54319e-06
2.55911e-06
-9.19133e-06
2.32967e-06
-1.05298e-05
1.89872e-06
-1.14373e-05
1.29489e-06
-1.1819e-05
5.53342e-07
-1.16161e-05
-2.76206e-07
-1.08188e-05
-1.12416e-06
-9.4792e-06
-1.90099e-06
-7.71834e-06
-2.50453e-06
-5.72409e-06
-2.8348e-06
-3.73413e-06
-2.81565e-06
-2.00246e-06
-2.41994e-06
-7.50104e-07
-1.69311e-06
-1.0326e-07
-7.78868e-07
-1.06056e-09
-5.06073e-07
6.38219e-07
-1.89216e-06
2.35382e-06
-3.96682e-06
3.83269e-06
-6.48964e-06
4.82032e-06
-9.20787e-06
5.27641e-06
-1.18794e-05
5.23063e-06
-1.42828e-05
4.73313e-06
-1.6222e-05
3.83785e-06
-1.75301e-05
2.60298e-06
-1.80782e-05
1.10151e-06
-1.77883e-05
-5.66149e-07
-1.66486e-05
-2.26386e-06
-1.47291e-05
-3.82042e-06
-1.2191e-05
-5.04265e-06
-9.28381e-06
-5.74202e-06
-6.32569e-06
-5.77377e-06
-3.66242e-06
-5.0832e-06
-1.60738e-06
-3.74815e-06
-3.71302e-07
-2.01495e-06
-3.72361e-07
-7.89354e-07
1.42758e-06
-2.76819e-06
4.33266e-06
-5.58703e-06
6.65153e-06
-8.91171e-06
8.145e-06
-1.24269e-05
8.79158e-06
-1.58427e-05
8.64649e-06
-1.88979e-05
7.78831e-06
-2.13611e-05
6.30099e-06
-2.30349e-05
4.27679e-06
-2.37649e-05
1.83153e-06
-2.34535e-05
-8.77544e-07
-2.20777e-05
-3.63968e-06
-1.97074e-05
-6.1907e-06
-1.65196e-05
-8.23042e-06
-1.28013e-05
-9.4604e-06
-8.93301e-06
-9.64201e-06
-5.34852e-06
-8.66769e-06
-2.46901e-06
-6.62766e-06
-6.26153e-07
-3.85781e-06
-9.98513e-07
-1.04172e-06
2.4693e-06
-3.56951e-06
6.86045e-06
-7.08238e-06
1.01644e-05
-1.11494e-05
1.2212e-05
-1.53951e-05
1.30373e-05
-1.94913e-05
1.27427e-05
-2.31493e-05
1.14463e-05
-2.61153e-05
9.26696e-06
-2.81704e-05
6.33187e-06
-2.91374e-05
2.79854e-06
-2.88941e-05
-1.12076e-06
-2.73929e-05
-5.14092e-06
-2.46834e-05
-8.90019e-06
-2.09356e-05
-1.19783e-05
-1.6454e-05
-1.3942e-05
-1.16733e-05
-1.44226e-05
-7.12405e-06
-1.3217e-05
-3.36237e-06
-1.03893e-05
-8.76982e-07
-6.34319e-06
-1.8755e-06
-1.26667e-06
3.73597e-06
-4.29384e-06
9.88762e-06
-8.44317e-06
1.43137e-05
-1.3192e-05
1.69608e-05
-1.81102e-05
1.79555e-05
-2.28393e-05
1.74718e-05
-2.70736e-05
1.56806e-05
-3.05468e-05
1.27402e-05
-3.30253e-05
8.81037e-06
-3.43102e-05
4.08345e-06
-3.42483e-05
-1.18268e-06
-3.27521e-05
-6.63711e-06
-2.9829e-05
-1.18233e-05
-2.5616e-05
-1.61913e-05
-2.04124e-05
-1.91457e-05
-1.46959e-05
-2.01391e-05
-9.10321e-06
-1.88097e-05
-4.3582e-06
-1.51344e-05
-1.15171e-06
-9.54968e-06
-3.0272e-06
-1.46653e-06
5.2025e-06
-4.94045e-06
1.33615e-05
-9.66027e-06
1.90336e-05
-1.502e-05
2.23206e-05
-2.05428e-05
2.34783e-05
-2.58494e-05
2.27784e-05
-3.06283e-05
2.04595e-05
-3.46111e-05
1.6723e-05
-3.75575e-05
1.17567e-05
-3.92498e-05
5.77582e-06
-3.94995e-05
-9.33005e-07
-3.8166e-05
-7.97068e-06
-3.5191e-05
-1.47982e-05
-3.06477e-05
-2.07346e-05
-2.47972e-05
-2.49962e-05
-1.81369e-05
-2.67994e-05
-1.14095e-05
-2.5537e-05
-5.54015e-06
-2.10037e-05
-1.48267e-06
-1.36072e-05
-4.50987e-06
-1.64196e-06
6.84446e-06
-5.50638e-06
1.7226e-05
-1.07191e-05
2.42463e-05
-1.65992e-05
2.82007e-05
-2.26323e-05
2.95114e-05
-2.84305e-05
2.85766e-05
-3.36896e-05
2.57186e-05
-3.81531e-05
2.11864e-05
-4.1586e-05
1.51896e-05
-4.37604e-05
7.95026e-06
-4.4454e-05
-2.39374e-07
-4.34651e-05
-8.9596e-06
-4.06489e-05
-1.76144e-05
-3.59789e-05
-2.54045e-05
-2.96318e-05
-3.13432e-05
-2.20795e-05
-3.43518e-05
-1.4149e-05
-3.34674e-05
-6.99181e-06
-2.81609e-05
-1.9039e-06
-1.86951e-05
-6.41378e-06
-1.79375e-06
8.63821e-06
-5.98958e-06
2.14218e-05
-1.16037e-05
2.98605e-05
-1.78849e-05
3.44819e-05
-2.42919e-05
3.59183e-05
-3.04423e-05
3.4727e-05
-3.60568e-05
3.13331e-05
-4.09092e-05
2.60388e-05
-4.47885e-05
1.90689e-05
-4.74729e-05
1.06347e-05
-4.87183e-05
1.00603e-06
-4.82642e-05
-9.41368e-06
-4.58658e-05
-2.00128e-05
-4.13618e-05
-2.99085e-05
-3.4785e-05
-3.79201e-05
-2.65078e-05
-4.26289e-05
-1.73829e-05
-4.25923e-05
-8.78753e-06
-3.67563e-05
-2.45104e-06
-2.50316e-05
-8.86481e-06
-1.92717e-06
1.05654e-05
-6.39839e-06
2.5893e-05
-1.23087e-05
3.57708e-05
-1.88355e-05
4.10086e-05
-2.54215e-05
4.25043e-05
-3.1709e-05
4.10146e-05
-3.74658e-05
3.70898e-05
-4.25199e-05
3.1093e-05
-4.67099e-05
2.32589e-05
-4.98467e-05
1.37715e-05
-5.1689e-05
2.84832e-06
-5.19356e-05
-9.16704e-06
-5.02441e-05
-2.17044e-05
-4.62924e-05
-3.38603e-05
-3.99042e-05
-4.43083e-05
-3.12494e-05
-5.12838e-05
-2.10925e-05
-5.27491e-05
-1.0982e-05
-4.68669e-05
-3.16276e-06
-3.28508e-05
-1.20276e-05
-2.05921e-06
1.26246e-05
-6.76669e-06
3.06005e-05
-1.28583e-05
4.18624e-05
-1.94309e-05
4.75813e-05
-2.59268e-05
4.90002e-05
-3.20386e-05
4.71264e-05
-3.76097e-05
4.26609e-05
-4.25527e-05
3.6036e-05
-4.67874e-05
2.74935e-05
-5.01922e-05
1.71763e-05
-5.25672e-05
5.22332e-06
-5.36079e-05
-8.12631e-06
-5.29006e-05
-2.24117e-05
-4.99602e-05
-3.68007e-05
-4.43467e-05
-4.99218e-05
-3.59033e-05
-5.97272e-05
-2.51288e-05
-6.35236e-05
-1.35928e-05
-5.84029e-05
-4.08298e-06
-4.23606e-05
-1.61105e-05
-2.23019e-06
1.48548e-05
-7.17486e-06
3.55452e-05
-1.33276e-05
4.80152e-05
-1.96909e-05
5.39445e-05
-2.57334e-05
5.50427e-05
-3.12371e-05
5.26301e-05
-3.6159e-05
4.75828e-05
-4.05309e-05
4.04079e-05
-4.43885e-05
3.13511e-05
-4.77176e-05
2.05054e-05
-5.04072e-05
7.91293e-06
-5.22055e-05
-6.32803e-06
-5.26838e-05
-2.19334e-05
-5.12302e-05
-3.82543e-05
-4.71228e-05
-5.40292e-05
-3.97607e-05
-6.70893e-05
-2.91409e-05
-7.41434e-05
-1.65684e-05
-7.09754e-05
-5.26268e-06
-5.36663e-05
-2.13732e-05
-2.52239e-06
1.73772e-05
-7.77543e-06
4.07982e-05
-1.38585e-05
5.40983e-05
-1.96744e-05
5.97604e-05
-2.47756e-05
6.01439e-05
-2.90958e-05
5.69503e-05
-3.27555e-05
5.12426e-05
-3.59434e-05
4.35958e-05
-3.88434e-05
3.42511e-05
-4.1584e-05
2.3246e-05
-4.41908e-05
1.05197e-05
-4.65302e-05
-3.98863e-06
-4.82425e-05
-2.02212e-05
-4.86757e-05
-3.78211e-05
-4.68735e-05
-5.58314e-05
-4.17279e-05
-7.22349e-05
-3.24807e-05
-8.33907e-05
-1.97308e-05
-8.37252e-05
-6.75826e-06
-6.66389e-05
-2.81315e-05
-3.09002e-06
2.04672e-05
-8.8155e-06
4.65237e-05
-1.46421e-05
5.99249e-05
-1.94218e-05
6.45401e-05
-2.29124e-05
6.36344e-05
-2.52997e-05
5.93377e-05
-2.69316e-05
5.28745e-05
-2.8189e-05
4.48531e-05
-2.94247e-05
3.54868e-05
-3.09288e-05
2.47501e-05
-3.28945e-05
1.24855e-05
-3.53641e-05
-1.51904e-06
-3.81425e-05
-1.74428e-05
-4.06716e-05
-3.5292e-05
-4.19008e-05
-5.46022e-05
-4.02703e-05
-7.38653e-05
-3.40822e-05
-8.95787e-05
-2.26713e-05
-9.51361e-05
-8.614e-06
-8.06962e-05
-3.67455e-05
-4.20029e-06
2.46675e-05
-1.06211e-05
5.29445e-05
-1.57956e-05
6.50994e-05
-1.87435e-05
6.7488e-05
-1.96712e-05
6.45621e-05
-1.91648e-05
5.88314e-05
-1.78691e-05
5.15787e-05
-1.63768e-05
4.33608e-05
-1.52036e-05
3.43136e-05
-1.47876e-05
2.43341e-05
-1.54848e-05
1.31827e-05
-1.75369e-05
5.3304e-07
-2.09892e-05
-1.39904e-05
-2.55323e-05
-3.0749e-05
-3.02553e-05
-4.98792e-05
-3.33838e-05
-7.07368e-05
-3.23042e-05
-9.06583e-05
-2.45553e-05
-0.000102885
-1.07878e-05
-9.44637e-05
-4.75333e-05
-6.24664e-06
3.09141e-05
-1.34051e-05
6.0103e-05
-1.69238e-05
6.86181e-05
-1.66375e-05
6.72017e-05
-1.36274e-05
6.1552e-05
-9.0513e-06
5.42552e-05
-3.88366e-06
4.64111e-05
1.10207e-06
3.83751e-05
5.28641e-06
3.01292e-05
8.14755e-06
2.1473e-05
9.2248e-06
1.21055e-05
8.11237e-06
1.64547e-06
4.50858e-06
-1.03867e-05
-1.64561e-06
-2.45948e-05
-9.86094e-06
-4.16638e-05
-1.85929e-05
-6.20049e-05
-2.47112e-05
-8.454e-05
-2.37497e-05
-0.000103847
-1.29143e-05
-0.000105299
-6.04476e-05
-9.56133e-06
4.04755e-05
-1.64266e-05
6.69682e-05
-1.58213e-05
6.80129e-05
-9.88933e-06
6.12697e-05
-1.1256e-06
5.27883e-05
8.70432e-06
4.44253e-05
1.84204e-05
3.6695e-05
2.72255e-05
2.957e-05
3.45429e-05
2.28119e-05
3.98977e-05
1.61182e-05
4.28397e-05
9.1634e-06
4.29009e-05
1.58435e-06
3.95931e-05
-7.07888e-06
3.2472e-05
-1.74737e-05
2.1381e-05
-3.05729e-05
7.05416e-06
-4.7678e-05
-7.76902e-06
-6.97169e-05
-1.72133e-05
-9.44022e-05
-1.37632e-05
-0.000108749
-7.42108e-05
-1.34307e-05
5.39061e-05
-1.50809e-05
6.86184e-05
-5.09717e-06
5.80292e-05
9.81189e-06
4.63606e-05
2.58433e-05
3.67568e-05
4.12131e-05
2.90556e-05
5.50411e-05
2.2867e-05
6.68633e-05
1.77477e-05
7.63913e-05
1.32839e-05
8.33737e-05
9.1358e-06
8.75162e-05
5.02096e-06
8.84265e-05
6.74008e-07
8.55793e-05
-4.23167e-06
7.82683e-05
-1.01627e-05
6.56649e-05
-1.79695e-05
4.71891e-05
-2.92022e-05
2.37948e-05
-4.63225e-05
7.10997e-07
-7.13184e-05
-1.02175e-05
-9.78207e-05
-8.44283e-05
-9.40936e-06
6.33155e-05
8.82283e-06
5.03862e-05
3.51833e-05
3.16687e-05
6.00395e-05
2.15044e-05
8.14879e-05
1.53085e-05
9.94576e-05
1.10859e-05
0.000114207
8.1174e-06
0.00012602
5.93445e-06
0.000135102
4.2023e-06
0.000141536
2.70156e-06
0.000145272
1.28487e-06
0.000146103
-1.57158e-07
0.000143639
-1.7669e-06
0.000137176
-3.70048e-06
0.000125545
-6.33842e-06
0.000106896
-1.05527e-05
7.90781e-05
-1.85048e-05
4.22935e-05
-3.45339e-05
6.89779e-06
-6.24249e-05
-7.75306e-05
6.33155e-05
0.000113702
0.00014537
0.000166875
0.000182183
0.000193269
0.000201387
0.000207321
0.000211523
0.000214225
0.00021551
0.000215353
0.000213586
0.000209885
0.000203547
0.000192994
0.000174489
0.000139955
7.75306e-05
)
;

boundaryField
{
    movingWall
    {
        type            calculated;
        value           uniform 0;
    }
    fixedWalls
    {
        type            calculated;
        value           uniform 0;
    }
    frontAndBack
    {
        type            empty;
        value           nonuniform List<scalar> 0();
    }
}


// ************************************************************************* //
