/*--------------------------------*- C++ -*----------------------------------*\
  =========                 |
  \\      /  F ield         | OpenFOAM: The Open Source CFD Toolbox
   \\    /   O peration     | Website:  https://openfoam.org
    \\  /    A nd           | Version:  8
     \\/     M anipulation  |
\*---------------------------------------------------------------------------*/
FoamFile
{
    version     2.0;
    format      ascii;
    class       volVectorField;
    location    "1";
    object      U;
}
// * * * * * * * * * * * * * * * * * * * * * * * * * * * * * * * * * * * * * //

dimensions      [0 1 -1 0 0 0 0];

internalField   nonuniform List<vector> 
400
(
(0.00120494 -0.0012069 0)
(0.000403057 0.000673665 0)
(-0.00645047 0.00286783 0)
(-0.0179683 0.0043408 0)
(-0.0321747 0.00506954 0)
(-0.0472977 0.00518573 0)
(-0.0618321 0.00480623 0)
(-0.074496 0.00400761 0)
(-0.0841755 0.00283758 0)
(-0.0899131 0.00134571 0)
(-0.0909665 -0.000383526 0)
(-0.0869299 -0.00220719 0)
(-0.0778863 -0.00391662 0)
(-0.0645419 -0.00525307 0)
(-0.0482899 -0.00594637 0)
(-0.0311502 -0.00577363 0)
(-0.015547 -0.00462903 0)
(-0.00390951 -0.0025945 0)
(0.00189196 -8.66936e-05 0)
(0.00157723 0.00152448 0)
(-0.000622556 -0.000510698 0)
(-0.00896266 0.0088409 0)
(-0.0300557 0.018404 0)
(-0.0603851 0.024986 0)
(-0.0959812 0.0282393 0)
(-0.13317 0.0284699 0)
(-0.168539 0.0260743 0)
(-0.199036 0.0213985 0)
(-0.222008 0.0147511 0)
(-0.235259 0.00649964 0)
(-0.237198 -0.00281657 0)
(-0.227085 -0.0124097 0)
(-0.205301 -0.0212355 0)
(-0.173566 -0.0280777 0)
(-0.135016 -0.0317287 0)
(-0.0940202 -0.0312548 0)
(-0.0556699 -0.0263056 0)
(-0.0249209 -0.0174131 0)
(-0.00570002 -0.00641527 0)
(0.000312533 0.00208296 0)
(-0.00307519 0.00649818 0)
(-0.0201051 0.0303324 0)
(-0.0555782 0.0520766 0)
(-0.10299 0.0669024 0)
(-0.156659 0.0739968 0)
(-0.211699 0.073788 0)
(-0.263484 0.0670351 0)
(-0.307803 0.0545327 0)
(-0.340995 0.0371112 0)
(-0.360054 0.0158046 0)
(-0.362842 -0.00794527 0)
(-0.348391 -0.0321542 0)
(-0.317231 -0.0543057 0)
(-0.271657 -0.0715519 0)
(-0.215829 -0.0811229 0)
(-0.155566 -0.0809212 0)
(-0.0977092 -0.0702149 0)
(-0.0490451 -0.0502795 0)
(-0.0155794 -0.0250315 0)
(-0.00167173 -0.00260524 0)
(-0.00527195 0.0195506 0)
(-0.0305687 0.0642361 0)
(-0.0798765 0.101427 0)
(-0.143252 0.125953 0)
(-0.213212 0.137019 0)
(-0.283896 0.135373 0)
(-0.349843 0.122253 0)
(-0.406094 0.0990091 0)
(-0.448327 0.0671303 0)
(-0.472972 0.0284926 0)
(-0.477435 -0.0143415 0)
(-0.460429 -0.0579264 0)
(-0.422351 -0.0979531 0)
(-0.365633 -0.129563 0)
(-0.294943 -0.148002 0)
(-0.217093 -0.149584 0)
(-0.140415 -0.132846 0)
(-0.073619 -0.0996037 0)
(-0.0253395 -0.055755 0)
(-0.00346093 -0.0125727 0)
(-0.00717302 0.0379688 0)
(-0.0400215 0.109533 0)
(-0.102246 0.165037 0)
(-0.180482 0.200203 0)
(-0.265436 0.214972 0)
(-0.350398 0.210804 0)
(-0.42931 0.189603 0)
(-0.496732 0.153371 0)
(-0.547916 0.104307 0)
(-0.578856 0.0451591 0)
(-0.586485 -0.0203522 0)
(-0.569009 -0.0872522 0)
(-0.526346 -0.149294 0)
(-0.460607 -0.199335 0)
(-0.37651 -0.230192 0)
(-0.281545 -0.235997 0)
(-0.185511 -0.213893 0)
(-0.0994125 -0.165648 0)
(-0.0352324 -0.0987665 0)
(-0.00511005 -0.0275237 0)
(-0.00883618 0.0611594 0)
(-0.048497 0.16532 0)
(-0.122545 0.241955 0)
(-0.214429 0.288674 0)
(-0.313155 0.306905 0)
(-0.41129 0.299289 0)
(-0.502371 0.268648 0)
(-0.580699 0.217729 0)
(-0.641277 0.149422 0)
(-0.679753 0.0672674 0)
(-0.692539 -0.0239734 0)
(-0.677118 -0.117882 0)
(-0.632549 -0.206251 0)
(-0.560117 -0.279417 0)
(-0.464069 -0.327239 0)
(-0.352183 -0.340815 0)
(-0.235679 -0.314854 0)
(-0.128277 -0.250118 0)
(-0.0462054 -0.155194 0)
(-0.00687308 -0.0476252 0)
(-0.0103016 0.0885987 0)
(-0.0560397 0.230591 0)
(-0.140688 0.330996 0)
(-0.244805 0.39015 0)
(-0.355872 0.411699 0)
(-0.465895 0.399971 0)
(-0.56822 0.358988 0)
(-0.657109 0.292323 0)
(-0.72752 0.203486 0)
(-0.774875 0.0966154 0)
(-0.795056 -0.0227475 0)
(-0.784656 -0.146998 0)
(-0.741501 -0.266103 0)
(-0.665499 -0.367744 0)
(-0.559745 -0.438251 0)
(-0.431685 -0.464615 0)
(-0.293652 -0.437619 0)
(-0.162371 -0.355522 0)
(-0.0594126 -0.227126 0)
(-0.00904796 -0.0736648 0)
(-0.0115889 0.119791 0)
(-0.0626588 0.304255 0)
(-0.156539 0.430732 0)
(-0.271156 0.503047 0)
(-0.392663 0.527793 0)
(-0.51271 0.511526 0)
(-0.624706 0.459771 0)
(-0.72316 0.37701 0)
(-0.80325 0.267253 0)
(-0.86039 0.134952 0)
(-0.890048 -0.0139752 0)
(-0.887875 -0.171186 0)
(-0.85019 -0.325183 0)
(-0.77495 -0.461069 0)
(-0.663256 -0.561187 0)
(-0.521233 -0.607201 0)
(-0.361522 -0.583994 0)
(-0.203769 -0.485027 0)
(-0.0760823 -0.317692 0)
(-0.011963 -0.107106 0)
(-0.0127185 0.154247 0)
(-0.0683819 0.385147 0)
(-0.16998 0.539479 0)
(-0.292946 0.625303 0)
(-0.422271 0.652947 0)
(-0.549505 0.631796 0)
(-0.668444 0.569226 0)
(-0.77421 0.470721 0)
(-0.862577 0.340654 0)
(-0.929309 0.183448 0)
(-0.969763 0.00486997 0)
(-0.978814 -0.186649 0)
(-0.951191 -0.378801 0)
(-0.882441 -0.554546 0)
(-0.770718 -0.692113 0)
(-0.619423 -0.76671 0)
(-0.439985 -0.754914 0)
(-0.254115 -0.642009 0)
(-0.0974749 -0.430959 0)
(-0.0160002 -0.150119 0)
(-0.0137583 0.191519 0)
(-0.0733996 0.472081 0)
(-0.181137 0.655262 0)
(-0.30981 0.754205 0)
(-0.443376 0.783921 0)
(-0.573599 0.757341 0)
(-0.695086 0.684102 0)
(-0.804041 0.570816 0)
(-0.897333 0.422101 0)
(-0.971603 0.241988 0)
(-1.02262 0.0354987 0)
(-1.04494 -0.18967 0)
(-1.03197 -0.421389 0)
(-0.976643 -0.641425 0)
(-0.873318 -0.824387 0)
(-0.720946 -0.938384 0)
(-0.527354 -0.949141 0)
(-0.314193 -0.829135 0)
(-0.12487 -0.571625 0)
(-0.0216475 -0.205624 0)
(-0.0149035 0.231353 0)
(-0.0783035 0.564035 0)
(-0.190734 0.775861 0)
(-0.321945 0.886239 0)
(-0.454962 0.916156 0)
(-0.58222 0.882986 0)
(-0.69971 0.79911 0)
(-0.805302 0.672436 0)
(-0.897574 0.507742 0)
(-0.974704 0.308351 0)
(-1.03362 0.0779533 0)
(-1.06934 -0.177407 0)
(-1.07463 -0.447059 0)
(-1.04018 -0.713136 0)
(-0.956077 -0.948051 0)
(-0.815089 -1.11322 0)
(-0.618235 -1.1615 0)
(-0.383227 -1.04687 0)
(-0.159518 -0.744425 0)
(-0.0295786 -0.277381 0)
(-0.0166137 0.274025 0)
(-0.0844447 0.660525 0)
(-0.200542 0.898917 0)
(-0.330508 1.01693 0)
(-0.45663 1.04344 0)
(-0.572784 1.00139 0)
(-0.677146 0.906444 0)
(-0.769978 0.767959 0)
(-0.852238 0.590826 0)
(-0.924369 0.377432 0)
(-0.985315 0.129661 0)
(-1.03162 -0.148956 0)
(-1.05657 -0.450634 0)
(-1.04968 -0.75997 0)
(-0.99709 -1.04975 0)
(-0.884257 -1.2768 0)
(-0.701837 -1.38071 0)
(-0.457753 -1.29127 0)
(-0.202461 -0.953049 0)
(-0.0407652 -0.370148 0)
(-0.0198521 0.320989 0)
(-0.0944502 0.762177 0)
(-0.21383 1.022 0)
(-0.337763 1.14053 0)
(-0.448451 1.15745 0)
(-0.5426 1.10264 0)
(-0.621747 0.99543 0)
(-0.689399 0.846699 0)
(-0.749557 0.661362 0)
(-0.805565 0.440738 0)
(-0.859177 0.184642 0)
(-0.909568 -0.106505 0)
(-0.952096 -0.429086 0)
(-0.976862 -0.772509 0)
(-0.967699 -1.11355 0)
(-0.902939 -1.40878 0)
(-0.760028 -1.58724 0)
(-0.529838 -1.5508 0)
(-0.254019 -1.19819 0)
(-0.0565965 -0.489864 0)
(-0.0265047 0.376017 0)
(-0.112906 0.871369 0)
(-0.23548 1.14226 0)
(-0.346299 1.2492 0)
(-0.429464 1.24699 0)
(-0.487035 1.17367 0)
(-0.525589 1.05232 0)
(-0.552812 0.894969 0)
(-0.576247 0.706313 0)
(-0.602472 0.486498 0)
(-0.636488 0.233282 0)
(-0.680929 -0.0561628 0)
(-0.734708 -0.383109 0)
(-0.790877 -0.743787 0)
(-0.833918 -1.12309 0)
(-0.837502 -1.48386 0)
(-0.765348 -1.75175 0)
(-0.584396 -1.80252 0)
(-0.312453 -1.47404 0)
(-0.0788559 -0.643584 0)
(-0.0400059 0.447082 0)
(-0.14691 0.992471 0)
(-0.270653 1.25496 0)
(-0.355542 1.33116 0)
(-0.392811 1.29648 0)
(-0.394163 1.19765 0)
(-0.373317 1.06036 0)
(-0.342893 0.896773 0)
(-0.314019 0.710668 0)
(-0.296229 0.500845 0)
(-0.297513 0.263232 0)
(-0.324048 -0.00778923 0)
(-0.379177 -0.318145 0)
(-0.461122 -0.67174 0)
(-0.559005 -1.06503 0)
(-0.647058 -1.47484 0)
(-0.679107 -1.83567 0)
(-0.595064 -2.00829 0)
(-0.370545 -1.76263 0)
(-0.108919 -0.838503 0)
(-0.065715 0.549486 0)
(-0.204749 1.13016 0)
(-0.318358 1.34905 0)
(-0.351056 1.36664 0)
(-0.313279 1.28372 0)
(-0.232437 1.15328 0)
(-0.131003 1.00061 0)
(-0.0262685 0.835647 0)
(0.0680873 0.659966 0)
(0.140866 0.470638 0)
(0.182382 0.26214 0)
(0.183937 0.0270661 0)
(0.138137 -0.243753 0)
(0.0404937 -0.560804 0)
(-0.10655 -0.933132 0)
(-0.285256 -1.35812 0)
(-0.449444 -1.7948 0)
(-0.517775 -2.11279 0)
(-0.407784 -2.02689 0)
(-0.144223 -1.08079 0)
(-0.108543 0.712135 0)
(-0.286068 1.28076 0)
(-0.348955 1.39358 0)
(-0.276104 1.31804 0)
(-0.119748 1.17512 0)
(0.0729645 1.01429 0)
(0.2729 0.853953 0)
(0.461264 0.698163 0)
(0.624941 0.544572 0)
(0.753843 0.38812 0)
(0.839014 0.222364 0)
(0.871427 0.0395112 0)
(0.841496 -0.170449 0)
(0.739387 -0.421207 0)
(0.55739 -0.731276 0)
(0.297843 -1.11999 0)
(-0.00898693 -1.58559 0)
(-0.281513 -2.04314 0)
(-0.376047 -2.20053 0)
(-0.167783 -1.37374 0)
(-0.155423 0.978438 0)
(-0.340082 1.40043 0)
(-0.237099 1.30642 0)
(0.0334776 1.11474 0)
(0.355061 0.923756 0)
(0.674841 0.754311 0)
(0.969836 0.608661 0)
(1.22815 0.481902 0)
(1.44298 0.367108 0)
(1.60938 0.257505 0)
(1.72222 0.146738 0)
(1.77486 0.0282448 0)
(1.75837 -0.106055 0)
(1.66054 -0.268165 0)
(1.46548 -0.478182 0)
(1.15694 -0.76886 0)
(0.731268 -1.18064 0)
(0.228214 -1.71333 0)
(-0.173245 -2.15946 0)
(-0.118902 -1.67498 0)
(-0.0475388 1.26948 0)
(-0.0720194 1.31686 0)
(0.411492 0.968963 0)
(0.958273 0.709556 0)
(1.4296 0.529354 0)
(1.82325 0.398432 0)
(2.14936 0.301151 0)
(2.41429 0.226143 0)
(2.62281 0.164593 0)
(2.77794 0.110118 0)
(2.88017 0.0580082 0)
(2.92703 0.00428487 0)
(2.91282 -0.0552925 0)
(2.82706 -0.127354 0)
(2.65191 -0.224383 0)
(2.35847 -0.373282 0)
(1.90186 -0.63038 0)
(1.22459 -1.0792 0)
(0.452855 -1.68854 0)
(0.21751 -1.7018 0)
(1.4383 0.707216 0)
(1.83575 0.626593 0)
(2.56341 0.398288 0)
(3.13751 0.251673 0)
(3.51192 0.164261 0)
(3.76913 0.109433 0)
(3.9567 0.074005 0)
(4.09508 0.05024 0)
(4.19522 0.0331232 0)
(4.26359 0.019524 0)
(4.30326 0.00749347 0)
(4.31474 -0.00430658 0)
(4.29618 -0.0169546 0)
(4.24281 -0.0321737 0)
(4.14483 -0.0531799 0)
(3.98109 -0.087983 0)
(3.70235 -0.158357 0)
(3.17428 -0.316158 0)
(2.29948 -0.62275 0)
(1.66823 -0.779859 0)
)
;

boundaryField
{
    movingWall
    {
        type            fixedValue;
        value           uniform (5.07402 0 0);
    }
    fixedWalls
    {
        type            noSlip;
    }
    frontAndBack
    {
        type            empty;
    }
}


// ************************************************************************* //
