/*--------------------------------*- C++ -*----------------------------------*\
  =========                 |
  \\      /  F ield         | OpenFOAM: The Open Source CFD Toolbox
   \\    /   O peration     | Website:  https://openfoam.org
    \\  /    A nd           | Version:  9
     \\/     M anipulation  |
\*---------------------------------------------------------------------------*/
FoamFile
{
    format      ascii;
    class       surfaceScalarField;
    location    "0.035";
    object      phi;
}
// * * * * * * * * * * * * * * * * * * * * * * * * * * * * * * * * * * * * * //

dimensions      [0 3 -1 0 0 0 0];

internalField   nonuniform List<scalar> 
66
(
-1.65056e-05
1.65194e-05
-1.9209e-05
1.48118e-05
-2.13679e-05
1.21896e-05
-2.2895e-05
8.72517e-06
4.67701e-06
-1.9261e-05
1.9976e-05
-2.21601e-05
1.7711e-05
-2.43466e-05
1.4376e-05
-2.58047e-05
1.01833e-05
5.45737e-06
-1.42483e-05
2.58163e-05
-1.84406e-05
2.5464e-05
-2.21853e-05
2.37208e-05
-2.51571e-05
2.06827e-05
-2.72857e-05
1.65046e-05
-2.86462e-05
1.15439e-05
6.17829e-06
-1.65902e-05
3.06519e-05
-2.09729e-05
2.98468e-05
-2.46504e-05
2.73982e-05
-2.74463e-05
2.34786e-05
-2.93966e-05
1.84549e-05
-3.06524e-05
1.27997e-05
6.91238e-06
-1.85268e-05
3.56035e-05
-2.26921e-05
3.40121e-05
-2.59305e-05
3.06366e-05
-2.82428e-05
2.57908e-05
-2.98024e-05
2.00146e-05
-3.08342e-05
1.38315e-05
7.58289e-06
-1.96371e-05
-2.30259e-05
-2.5328e-05
-2.67771e-05
-2.76179e-05
-2.81211e-05
1.43348e-05
7.98775e-06
-2.13115e-05
)
;

boundaryField
{
    movingWall
    {
        type            calculated;
        value           nonuniform List<scalar> 0();
    }
    fixedWalls
    {
        type            calculated;
        value           nonuniform List<scalar> 0();
    }
    frontAndBack
    {
        type            empty;
        value           nonuniform List<scalar> 0();
    }
    procBoundary3to1
    {
        type            processor;
        value           nonuniform List<scalar> 8(1.34197e-05 -2.14411e-05 1.58044e-05 -2.12717e-05 9.87306e-06 1.17545e-05 1.35753e-05 1.50591e-05);
    }
    procBoundary3to2
    {
        type            processor;
        value           nonuniform List<scalar> 5(-1.34334e-05 -1.21085e-05 -1.00307e-05 -7.19801e-06 -3.7861e-06);
    }
    procBoundary3to4
    {
        type            processor;
        value           nonuniform List<scalar> 8(4.01815e-05 3.7401e-05 3.29386e-05 2.72399e-05 2.08554e-05 2.16638e-05 1.39825e-05 7.83244e-06);
    }
    procBoundary3to5
    {
        type            processor;
        value           nonuniform List<scalar> 2(-2.37859e-05 -2.65851e-05);
    }
    procBoundary3to6
    {
        type            processor;
        value           nonuniform List<scalar> 5(-2.93671e-05 -3.13865e-05 -3.15048e-05 -2.8526e-05 -2.11562e-05);
    }
}


// ************************************************************************* //
