/*--------------------------------*- C++ -*----------------------------------*\
  =========                 |
  \\      /  F ield         | OpenFOAM: The Open Source CFD Toolbox
   \\    /   O peration     | Website:  https://openfoam.org
    \\  /    A nd           | Version:  9
     \\/     M anipulation  |
\*---------------------------------------------------------------------------*/
FoamFile
{
    format      ascii;
    class       volScalarField;
    location    "0.01";
    object      p;
}
// * * * * * * * * * * * * * * * * * * * * * * * * * * * * * * * * * * * * * //

dimensions      [0 2 -2 0 0 0 0];

internalField   nonuniform List<scalar> 
40
(
0.00888008
0.0117529
0.00590536
0.00742676
0.00973296
0.0116706
0.0127438
0.0129937
0.00345201
0.00273107
0.0033089
0.00380888
0.0041445
0.00432776
0.00152794
-0.00183284
-0.00228169
-0.00260383
-0.00261696
-0.00204824
-0.00331837
-0.00695535
-0.00732745
-0.00752244
-0.0070516
-0.00578491
-0.0076263
-0.0117689
-0.0115354
-0.0111325
-0.00975341
-0.00740986
-0.0126633
-0.0164979
-0.00361581
-0.00184826
-0.00229642
-0.00418802
-0.0145008
-0.00715045
)
;

boundaryField
{
    movingWall
    {
        type            zeroGradient;
    }
    fixedWalls
    {
        type            zeroGradient;
    }
    frontAndBack
    {
        type            empty;
    }
    procBoundary8to5
    {
        type            processor;
        value           nonuniform List<scalar> 4(0.00514419 0.00203174 -0.000735373 -0.00211571);
    }
    procBoundary8to6
    {
        type            processor;
        value           nonuniform List<scalar> 4(-0.00712154 -0.0130596 -0.0182146 -0.0244404);
    }
    procBoundary8to7
    {
        type            processor;
        value           nonuniform List<scalar> 7(0.0124236 0.0159643 0.0145124 0.0145124 0.0175909 0.0193518 0.0195187);
    }
    procBoundary8to9
    {
        type            processor;
        value           nonuniform List<scalar> 7(-0.000878612 -0.0056713 -0.00519612 -0.00577749 -0.0187109 -0.000878612 -0.0214752);
    }
}


// ************************************************************************* //
