/*--------------------------------*- C++ -*----------------------------------*\
  =========                 |
  \\      /  F ield         | OpenFOAM: The Open Source CFD Toolbox
   \\    /   O peration     | Website:  https://openfoam.org
    \\  /    A nd           | Version:  8
     \\/     M anipulation  |
\*---------------------------------------------------------------------------*/
FoamFile
{
    version     2.0;
    format      ascii;
    class       volScalarField;
    location    "1";
    object      p;
}
// * * * * * * * * * * * * * * * * * * * * * * * * * * * * * * * * * * * * * //

dimensions      [0 2 -2 0 0 0 0];

internalField   nonuniform List<scalar> 
400
(
-0.0991354
-0.198079
-0.251201
-0.276565
-0.280192
-0.267976
-0.243039
-0.205968
-0.159405
-0.106344
-0.0490149
0.0103981
0.0691294
0.124037
0.17225
0.211719
0.24145
0.26143
0.272439
0.2761
-0.198467
-0.238923
-0.268437
-0.283577
-0.282558
-0.267704
-0.241366
-0.204235
-0.158497
-0.10651
-0.0500895
0.00874127
0.0672025
0.12202
0.170128
0.209306
0.238485
0.257591
0.266988
0.266636
-0.25014
-0.268341
-0.280139
-0.284537
-0.277206
-0.259859
-0.233792
-0.198702
-0.156132
-0.107862
-0.0550401
0.000874253
0.0572966
0.110725
0.157613
0.195313
0.222643
0.239745
0.247186
0.245435
-0.273136
-0.280631
-0.280634
-0.276438
-0.263814
-0.244688
-0.219943
-0.188451
-0.151129
-0.10914
-0.0627216
-0.0123931
0.0397582
0.0900968
0.134524
0.169831
0.194584
0.209049
0.214137
0.210886
-0.277958
-0.278988
-0.271542
-0.260951
-0.243994
-0.223448
-0.200366
-0.173049
-0.14193
-0.107853
-0.0702659
-0.0285127
0.0162382
0.060605
0.10021
0.131457
0.152678
0.164052
0.166789
0.162321
-0.270271
-0.267566
-0.255659
-0.240982
-0.221049
-0.199675
-0.178578
-0.155691
-0.130942
-0.105378
-0.0782451
-0.0477693
-0.0137102
0.0214953
0.0537668
0.0794134
0.0964924
0.104792
0.105767
0.101026
-0.255701
-0.251765
-0.238199
-0.222158
-0.201193
-0.179908
-0.161117
-0.142705
-0.12361
-0.10553
-0.0886549
-0.0707498
-0.0499001
-0.0267205
-0.0040572
0.014866
0.0278348
0.0338332
0.0342563
0.0305405
-0.239575
-0.236734
-0.224444
-0.210235
-0.19093
-0.171209
-0.15526
-0.141869
-0.127814
-0.115132
-0.106285
-0.0999901
-0.0929708
-0.0832794
-0.0714222
-0.0593675
-0.0495017
-0.044161
-0.0426889
-0.0444363
-0.224324
-0.224836
-0.21683
-0.208154
-0.194385
-0.179044
-0.167093
-0.160645
-0.152863
-0.144235
-0.140094
-0.142021
-0.14662
-0.149316
-0.147411
-0.140772
-0.131735
-0.124522
-0.120338
-0.120322
-0.208177
-0.213733
-0.212691
-0.213364
-0.21025
-0.204464
-0.198583
-0.202377
-0.205251
-0.202646
-0.201368
-0.207265
-0.218845
-0.229959
-0.234643
-0.230079
-0.218213
-0.205628
-0.196916
-0.196493
-0.184998
-0.196136
-0.204587
-0.218344
-0.23165
-0.244009
-0.247968
-0.265315
-0.285169
-0.294817
-0.298732
-0.306438
-0.320106
-0.334036
-0.340109
-0.332867
-0.313412
-0.290738
-0.274405
-0.274193
-0.145625
-0.162202
-0.184274
-0.216066
-0.25086
-0.292941
-0.314265
-0.347424
-0.388335
-0.417337
-0.43247
-0.443767
-0.45699
-0.46884
-0.471179
-0.456751
-0.424974
-0.386195
-0.355688
-0.351656
-0.0812287
-0.104254
-0.148008
-0.207265
-0.266742
-0.347213
-0.397987
-0.450392
-0.511596
-0.562233
-0.593644
-0.61222
-0.624751
-0.631219
-0.626275
-0.602641
-0.55623
-0.495172
-0.438616
-0.41825
0.0129631
-0.0209432
-0.0965047
-0.19787
-0.285876
-0.398421
-0.487064
-0.567062
-0.649164
-0.720884
-0.77119
-0.798879
-0.806824
-0.800785
-0.783706
-0.751297
-0.692918
-0.607175
-0.509667
-0.452348
0.138342
0.0835174
-0.025967
-0.174917
-0.303341
-0.42577
-0.541371
-0.657782
-0.773971
-0.877456
-0.956896
-0.999235
-0.983045
-0.940798
-0.895977
-0.851624
-0.78774
-0.684326
-0.539166
-0.425325
0.302073
0.209064
0.0778546
-0.0842721
-0.265806
-0.397219
-0.527424
-0.689532
-0.874941
-1.05162
-1.18645
-1.23958
-1.18215
-1.05096
-0.917255
-0.825808
-0.753124
-0.651351
-0.479935
-0.30968
0.524823
0.382414
0.239033
0.116574
-0.0926561
-0.292144
-0.515255
-0.782555
-1.0712
-1.33298
-1.51542
-1.57601
-1.49562
-1.26304
-0.954185
-0.668414
-0.48283
-0.389831
-0.265037
-0.0886306
0.83685
0.689699
0.543145
0.366518
0.0751232
-0.269857
-0.665046
-1.06703
-1.41543
-1.67794
-1.84379
-1.90753
-1.85862
-1.66393
-1.2733
-0.694881
-0.131927
0.200121
0.247564
0.314937
1.45363
1.2547
0.951108
0.481617
-0.106558
-0.645253
-1.08593
-1.44514
-1.72988
-1.94087
-2.07994
-2.14693
-2.1324
-2.00806
-1.71876
-1.17842
-0.310512
0.604328
1.10214
1.19871
2.09865
1.62202
0.829683
-0.00161828
-0.584778
-1.00231
-1.34116
-1.62687
-1.85968
-2.03742
-2.15997
-2.22605
-2.22716
-2.14291
-1.94027
-1.57422
-0.943907
0.126464
1.46087
2.18822
)
;

boundaryField
{
    movingWall
    {
        type            zeroGradient;
    }
    fixedWalls
    {
        type            zeroGradient;
    }
    frontAndBack
    {
        type            empty;
    }
}


// ************************************************************************* //
