/*--------------------------------*- C++ -*----------------------------------*\
  =========                 |
  \\      /  F ield         | OpenFOAM: The Open Source CFD Toolbox
   \\    /   O peration     | Website:  https://openfoam.org
    \\  /    A nd           | Version:  8
     \\/     M anipulation  |
\*---------------------------------------------------------------------------*/
FoamFile
{
    version     2.0;
    format      ascii;
    class       surfaceScalarField;
    location    "1";
    object      phi;
}
// * * * * * * * * * * * * * * * * * * * * * * * * * * * * * * * * * * * * * //

dimensions      [0 3 -1 0 0 0 0];

internalField   nonuniform List<scalar> 
760
(
6.40696e-08
-6.4041e-08
-1.33792e-07
1.97862e-07
-6.01138e-07
4.6735e-07
-1.24926e-06
6.48116e-07
-1.98541e-06
7.36154e-07
-2.72858e-06
7.43166e-07
-3.40988e-06
6.813e-07
-3.96995e-06
5.60077e-07
-4.35715e-06
3.87193e-07
-4.52872e-06
1.71573e-07
-4.45546e-06
-7.32566e-08
-4.12868e-06
-3.26779e-07
-3.56752e-06
-5.61164e-07
-2.82412e-06
-7.43399e-07
-1.98389e-06
-8.40233e-07
-1.15849e-06
-8.25395e-07
-4.70467e-07
-6.88027e-07
-2.98482e-08
-4.40619e-07
1.02147e-07
-1.31993e-07
1.0215e-07
-1.96136e-07
1.32086e-07
-9.65663e-07
9.67397e-07
-2.25575e-06
1.75744e-06
-3.90437e-06
2.29674e-06
-5.72556e-06
2.55735e-06
-7.54066e-06
2.55826e-06
-9.18823e-06
2.32888e-06
-1.05262e-05
1.89805e-06
-1.14334e-05
1.29441e-06
-1.1815e-05
5.53109e-07
-1.16121e-05
-2.76142e-07
-1.08151e-05
-1.12378e-06
-9.47594e-06
-1.90031e-06
-7.71573e-06
-2.50361e-06
-5.72219e-06
-2.83377e-06
-3.73295e-06
-2.81464e-06
-2.00187e-06
-2.41911e-06
-7.49919e-07
-1.69258e-06
-1.03253e-07
-7.78668e-07
-1.09952e-09
-5.05889e-07
6.37981e-07
-1.89149e-06
2.353e-06
-3.96544e-06
3.83139e-06
-6.48742e-06
4.81872e-06
-9.20474e-06
5.27467e-06
-1.18754e-05
5.22888e-06
-1.4278e-05
4.73151e-06
-1.62164e-05
3.8365e-06
-1.7524e-05
2.60202e-06
-1.8072e-05
1.10105e-06
-1.77821e-05
-5.66015e-07
-1.66428e-05
-2.26309e-06
-1.4724e-05
-3.81906e-06
-1.21868e-05
-5.04082e-06
-9.28067e-06
-5.73993e-06
-6.32362e-06
-5.7717e-06
-3.66128e-06
-5.08144e-06
-1.60692e-06
-3.74694e-06
-3.71213e-07
-2.01438e-06
-3.72311e-07
-7.89067e-07
1.42705e-06
-2.76721e-06
4.33114e-06
-5.58509e-06
6.64927e-06
-8.90865e-06
8.14228e-06
-1.24226e-05
8.78866e-06
-1.58374e-05
8.64359e-06
-1.88915e-05
7.78564e-06
-2.13538e-05
6.29876e-06
-2.30269e-05
4.2752e-06
-2.37566e-05
1.83075e-06
-2.34453e-05
-8.77357e-07
-2.20699e-05
-3.63847e-06
-1.97005e-05
-6.18852e-06
-1.65138e-05
-8.22744e-06
-1.27968e-05
-9.45695e-06
-8.93e-06
-9.63853e-06
-5.34678e-06
-8.66466e-06
-2.46825e-06
-6.62546e-06
-6.25983e-07
-3.85665e-06
-9.98294e-07
-1.04134e-06
2.46839e-06
-3.56826e-06
6.85805e-06
-7.07994e-06
1.0161e-05
-1.11456e-05
1.22079e-05
-1.53899e-05
1.3033e-05
-1.94847e-05
1.27384e-05
-2.31415e-05
1.14424e-05
-2.61063e-05
9.26365e-06
-2.81606e-05
6.32948e-06
-2.91272e-05
2.79732e-06
-2.8884e-05
-1.1206e-06
-2.73832e-05
-5.13926e-06
-2.46746e-05
-8.89709e-06
-2.09281e-05
-1.19739e-05
-1.64481e-05
-1.39369e-05
-1.16692e-05
-1.44174e-05
-7.12163e-06
-1.32123e-05
-3.36128e-06
-1.03858e-05
-8.76724e-07
-6.3412e-06
-1.87502e-06
-1.26622e-06
3.73461e-06
-4.29236e-06
9.88419e-06
-8.44031e-06
1.43089e-05
-1.31876e-05
1.69552e-05
-1.81041e-05
1.79495e-05
-2.28316e-05
1.74659e-05
-2.70645e-05
1.56752e-05
-3.05364e-05
1.27356e-05
-3.30139e-05
8.80698e-06
-3.42982e-05
4.08161e-06
-3.42361e-05
-1.18269e-06
-3.27403e-05
-6.6351e-06
-2.98181e-05
-1.18192e-05
-2.56066e-05
-1.61855e-05
-2.04048e-05
-1.91387e-05
-1.46905e-05
-2.01317e-05
-9.09995e-06
-1.88028e-05
-4.3567e-06
-1.51291e-05
-1.15134e-06
-9.54656e-06
-3.02636e-06
-1.46602e-06
5.20063e-06
-4.93879e-06
1.3357e-05
-9.65709e-06
1.90272e-05
-1.50151e-05
2.23132e-05
-2.05361e-05
2.34705e-05
-2.5841e-05
2.27707e-05
-3.06182e-05
2.04524e-05
-3.45995e-05
1.67169e-05
-3.75446e-05
1.17521e-05
-3.92361e-05
5.77311e-06
-3.94854e-05
-9.33401e-07
-3.8152e-05
-7.96848e-06
-3.51779e-05
-1.47934e-05
-3.06361e-05
-2.07273e-05
-2.47877e-05
-2.4987e-05
-1.81299e-05
-2.67895e-05
-1.14052e-05
-2.55275e-05
-5.53813e-06
-2.09961e-05
-1.48217e-06
-1.36025e-05
-4.50853e-06
-1.64142e-06
6.84205e-06
-5.50461e-06
1.72202e-05
-1.07158e-05
2.42384e-05
-1.6594e-05
2.81915e-05
-2.26252e-05
2.95017e-05
-2.84215e-05
2.8567e-05
-3.36787e-05
2.57097e-05
-3.81405e-05
2.11786e-05
-4.15719e-05
1.51835e-05
-4.37452e-05
7.94639e-06
-4.44381e-05
-2.40465e-07
-4.34491e-05
-8.9575e-06
-4.06335e-05
-1.7609e-05
-3.59649e-05
-2.53958e-05
-2.96201e-05
-3.13319e-05
-2.20707e-05
-3.4339e-05
-1.41434e-05
-3.34548e-05
-6.9891e-06
-2.81505e-05
-1.90321e-06
-1.86884e-05
-6.41174e-06
-1.7932e-06
8.63525e-06
-5.98779e-06
2.14148e-05
-1.16003e-05
2.98509e-05
-1.78796e-05
3.44709e-05
-2.42846e-05
3.59067e-05
-3.0433e-05
3.47155e-05
-3.60456e-05
3.13222e-05
-4.08961e-05
2.60291e-05
-4.47736e-05
1.90611e-05
-4.74566e-05
1.06294e-05
-4.8701e-05
1.00389e-06
-4.82464e-05
-9.41205e-06
-4.58483e-05
-2.00071e-05
-4.13455e-05
-2.98986e-05
-3.47709e-05
-3.79065e-05
-2.64969e-05
-4.2613e-05
-1.73757e-05
-4.2576e-05
-8.78392e-06
-3.67422e-05
-2.45007e-06
-2.50223e-05
-8.8618e-06
-1.92664e-06
1.05619e-05
-6.39665e-06
2.58848e-05
-1.23054e-05
3.57596e-05
-1.88303e-05
4.09958e-05
-2.54144e-05
4.24907e-05
-3.17e-05
4.10011e-05
-3.74547e-05
3.70769e-05
-4.25069e-05
3.10813e-05
-4.6695e-05
2.32492e-05
-4.983e-05
1.37644e-05
-5.16709e-05
2.84479e-06
-5.19167e-05
-9.16632e-06
-5.0225e-05
-2.16988e-05
-4.6274e-05
-3.38495e-05
-3.98878e-05
-4.42927e-05
-3.12362e-05
-5.12646e-05
-2.10835e-05
-5.27287e-05
-1.09773e-05
-4.68485e-05
-3.16144e-06
-3.28381e-05
-1.20232e-05
-2.05872e-06
1.26206e-05
-6.76507e-06
3.05911e-05
-1.28552e-05
4.18497e-05
-1.94261e-05
4.75667e-05
-2.59202e-05
4.89848e-05
-3.20301e-05
4.7111e-05
-3.75993e-05
4.26461e-05
-4.25405e-05
3.60224e-05
-4.67732e-05
2.74819e-05
-5.01762e-05
1.71674e-05
-5.25495e-05
5.21812e-06
-5.35889e-05
-8.12691e-06
-5.28809e-05
-2.24068e-05
-4.99406e-05
-3.67898e-05
-4.43285e-05
-4.99048e-05
-3.5888e-05
-5.97051e-05
-2.51178e-05
-6.34989e-05
-1.35867e-05
-5.83795e-05
-4.08118e-06
-4.23436e-05
-1.61044e-05
-2.22975e-06
1.48504e-05
-7.1734e-06
3.55348e-05
-1.33248e-05
4.80012e-05
-1.96866e-05
5.39285e-05
-2.57276e-05
5.50258e-05
-3.12297e-05
5.26131e-05
-3.615e-05
4.75664e-05
-4.05201e-05
4.03926e-05
-4.4376e-05
3.13378e-05
-4.77033e-05
2.04947e-05
-5.03911e-05
7.90596e-06
-5.21878e-05
-6.33024e-06
-5.26648e-05
-2.19298e-05
-5.12107e-05
-3.82439e-05
-4.71038e-05
-5.40117e-05
-3.97438e-05
-6.70651e-05
-2.9128e-05
-7.41147e-05
-1.65609e-05
-7.09466e-05
-5.26026e-06
-5.36443e-05
-2.13647e-05
-2.52197e-06
1.73723e-05
-7.77409e-06
4.07869e-05
-1.3856e-05
5.40831e-05
-1.96707e-05
5.97432e-05
-2.47707e-05
6.01258e-05
-2.90897e-05
5.69321e-05
-3.27483e-05
5.12249e-05
-3.59349e-05
4.35792e-05
-3.88335e-05
3.42364e-05
-4.15727e-05
2.32339e-05
-4.41779e-05
1.05112e-05
-4.65156e-05
-3.99251e-06
-4.82262e-05
-2.02192e-05
-4.86581e-05
-3.7812e-05
-4.68554e-05
-5.58144e-05
-4.17108e-05
-7.22097e-05
-3.24665e-05
-8.3359e-05
-1.97218e-05
-8.36913e-05
-6.75507e-06
-6.6611e-05
-2.81197e-05
-3.08955e-06
2.04619e-05
-8.81412e-06
4.65115e-05
-1.46398e-05
5.99087e-05
-1.94186e-05
6.4522e-05
-2.29084e-05
6.36156e-05
-2.52952e-05
5.93189e-05
-2.69265e-05
5.28563e-05
-2.81833e-05
4.4836e-05
-2.94183e-05
3.54714e-05
-3.09215e-05
2.47372e-05
-3.28862e-05
1.24758e-05
-3.53544e-05
-1.52431e-06
-3.81311e-05
-1.74424e-05
-4.06584e-05
-3.52848e-05
-4.1886e-05
-5.45868e-05
-4.02548e-05
-7.38409e-05
-3.4068e-05
-8.95458e-05
-2.26612e-05
-9.50982e-05
-8.60992e-06
-8.06622e-05
-3.67297e-05
-4.19959e-06
2.46615e-05
-1.06193e-05
5.29312e-05
-1.5793e-05
6.50824e-05
-1.87404e-05
6.74694e-05
-1.96679e-05
6.45431e-05
-1.91617e-05
5.88127e-05
-1.78663e-05
5.15608e-05
-1.63743e-05
4.33441e-05
-1.52014e-05
3.42985e-05
-1.47855e-05
2.43213e-05
-1.54825e-05
1.31728e-05
-1.75339e-05
5.27053e-07
-2.09849e-05
-1.39915e-05
-2.55259e-05
-3.07437e-05
-3.02464e-05
-4.98663e-05
-3.33726e-05
-7.07148e-05
-3.22919e-05
-9.06264e-05
-2.45449e-05
-0.000102845
-1.07828e-05
-9.44243e-05
-4.75125e-05
-6.24534e-06
3.09068e-05
-1.34023e-05
6.00882e-05
-1.69203e-05
6.86004e-05
-1.66341e-05
6.71832e-05
-1.36247e-05
6.15338e-05
-9.04974e-06
5.42377e-05
-3.88354e-06
4.63946e-05
1.10064e-06
3.83599e-05
5.28347e-06
3.01156e-05
8.1433e-06
2.14614e-05
9.21964e-06
1.20965e-05
8.10693e-06
1.63976e-06
4.50375e-06
-1.03883e-05
-1.64871e-06
-2.45913e-05
-9.86109e-06
-4.16539e-05
-1.85891e-05
-6.19868e-05
-2.47036e-05
-8.45119e-05
-2.37409e-05
-0.000103808
-1.29088e-05
-0.000105256
-6.04213e-05
-9.55883e-06
4.04656e-05
-1.6422e-05
6.69514e-05
-1.58166e-05
6.79949e-05
-9.88574e-06
6.12524e-05
-1.12409e-06
5.27721e-05
8.7032e-06
4.44104e-05
1.84163e-05
3.66814e-05
2.72185e-05
2.95577e-05
3.4533e-05
2.28012e-05
3.98851e-05
1.61093e-05
4.28251e-05
9.15652e-06
4.28849e-05
1.57996e-06
3.95769e-05
-7.08025e-06
3.24569e-05
-1.74714e-05
2.13689e-05
-3.05659e-05
7.04697e-06
-4.76648e-05
-7.76993e-06
-6.9695e-05
-1.72089e-05
-9.4369e-05
-1.37582e-05
-0.000108707
-7.41795e-05
-1.34262e-05
5.38919e-05
-1.50748e-05
6.86e-05
-5.09289e-06
5.8013e-05
9.81268e-06
4.63468e-05
2.58399e-05
3.67449e-05
4.12051e-05
2.90452e-05
5.50285e-05
2.2858e-05
6.68463e-05
1.774e-05
7.63701e-05
1.32773e-05
8.33489e-05
9.13047e-06
8.74885e-05
5.01701e-06
8.83968e-05
6.71632e-07
8.55487e-05
-4.23221e-06
7.82385e-05
-1.01611e-05
6.56378e-05
-1.79652e-05
4.71673e-05
-2.91943e-05
2.37811e-05
-4.63088e-05
7.06971e-07
-7.12949e-05
-1.02154e-05
-9.77848e-05
-8.43948e-05
-9.40435e-06
6.32962e-05
8.82397e-06
5.03716e-05
3.51776e-05
3.16594e-05
6.00269e-05
2.14975e-05
8.14688e-05
1.53031e-05
9.94324e-05
1.10816e-05
0.000114177
8.11391e-06
0.000125985
5.93162e-06
0.000135062
4.20004e-06
0.000141493
2.69985e-06
0.000145226
1.28373e-06
0.000146055
-1.57738e-07
0.00014359
-1.76674e-06
0.000137128
-3.69957e-06
0.0001255
-6.33663e-06
0.000106855
-1.05497e-05
7.90458e-05
-1.84995e-05
4.22738e-05
-3.4523e-05
6.89233e-06
-6.24033e-05
-7.75025e-05
6.32962e-05
0.000113668
0.000145327
0.000166825
0.000182128
0.000193209
0.000201323
0.000207255
0.000211455
0.000214155
0.000215439
0.000215281
0.000213514
0.000209814
0.000203478
0.000192928
0.000174429
0.000139906
7.75025e-05
)
;

boundaryField
{
    movingWall
    {
        type            calculated;
        value           uniform 0;
    }
    fixedWalls
    {
        type            calculated;
        value           uniform 0;
    }
    frontAndBack
    {
        type            empty;
        value           nonuniform List<scalar> 0();
    }
}


// ************************************************************************* //
