/*--------------------------------*- C++ -*----------------------------------*\
  =========                 |
  \\      /  F ield         | OpenFOAM: The Open Source CFD Toolbox
   \\    /   O peration     | Website:  https://openfoam.org
    \\  /    A nd           | Version:  8
     \\/     M anipulation  |
\*---------------------------------------------------------------------------*/
FoamFile
{
    version     2.0;
    format      ascii;
    class       volVectorField;
    location    "1";
    object      U;
}
// * * * * * * * * * * * * * * * * * * * * * * * * * * * * * * * * * * * * * //

dimensions      [0 1 -1 0 0 0 0];

internalField   nonuniform List<vector> 
400
(
(0.00120456 -0.00120664 0)
(0.000402915 0.000673423 0)
(-0.00644866 0.00286704 0)
(-0.0179633 0.00433965 0)
(-0.032166 0.00506821 0)
(-0.047285 0.00518435 0)
(-0.0618155 0.00480491 0)
(-0.0744758 0.00400645 0)
(-0.0841524 0.00283668 0)
(-0.0898882 0.0013452 0)
(-0.090941 -0.000383523 0)
(-0.0869054 -0.00220662 0)
(-0.0778644 -0.00391549 0)
(-0.064524 -0.00525149 0)
(-0.0482768 -0.00594457 0)
(-0.0311423 -0.00577193 0)
(-0.0155435 -0.00462775 0)
(-0.00390915 -0.0025939 0)
(0.00189105 -8.68302e-05 0)
(0.00157671 0.00152398 0)
(-0.000622369 -0.000510727 0)
(-0.00896007 0.00883829 0)
(-0.0300472 0.018399 0)
(-0.0603683 0.0249793 0)
(-0.0959549 0.0282318 0)
(-0.133134 0.0284622 0)
(-0.168493 0.0260671 0)
(-0.198981 0.0213924 0)
(-0.221947 0.0147466 0)
(-0.235193 0.00649735 0)
(-0.237131 -0.00281614 0)
(-0.227022 -0.0124063 0)
(-0.205243 -0.0212293 0)
(-0.173518 -0.0280693 0)
(-0.134979 -0.0317193 0)
(-0.0939954 -0.0312457 0)
(-0.0556561 -0.0262983 0)
(-0.0249154 -0.0174087 0)
(-0.00569926 -0.00641416 0)
(0.000312226 0.00208201 0)
(-0.00307425 0.00649611 0)
(-0.0200992 0.0303237 0)
(-0.0555624 0.0520622 0)
(-0.102962 0.0668843 0)
(-0.156616 0.0739769 0)
(-0.211641 0.073768 0)
(-0.263411 0.0670165 0)
(-0.307718 0.0545171 0)
(-0.3409 0.0371 0)
(-0.359953 0.0157991 0)
(-0.36274 -0.00794378 0)
(-0.348293 -0.0321453 0)
(-0.317141 -0.05429 0)
(-0.271581 -0.0715307 0)
(-0.215769 -0.0810988 0)
(-0.155524 -0.0808976 0)
(-0.0976839 -0.0701952 0)
(-0.0490332 -0.0502664 0)
(-0.0155762 -0.0250261 0)
(-0.00167158 -0.00260545 0)
(-0.00527033 0.0195447 0)
(-0.0305597 0.0642177 0)
(-0.0798537 0.101399 0)
(-0.143212 0.125919 0)
(-0.213152 0.136982 0)
(-0.283817 0.135336 0)
(-0.349746 0.122219 0)
(-0.405982 0.0989806 0)
(-0.448202 0.06711 0)
(-0.472839 0.0284828 0)
(-0.4773 -0.0143388 0)
(-0.460298 -0.0579106 0)
(-0.422231 -0.0979248 0)
(-0.365529 -0.129525 0)
(-0.294859 -0.147958 0)
(-0.217033 -0.14954 0)
(-0.140377 -0.132809 0)
(-0.0736002 -0.0995772 0)
(-0.0253337 -0.0557418 0)
(-0.00346034 -0.0125709 0)
(-0.00717082 0.0379574 0)
(-0.0400098 0.109502 0)
(-0.102217 0.164992 0)
(-0.180432 0.200149 0)
(-0.265363 0.214914 0)
(-0.350302 0.210746 0)
(-0.429191 0.18955 0)
(-0.496595 0.153327 0)
(-0.547763 0.104275 0)
(-0.578693 0.0451434 0)
(-0.586317 -0.0203491 0)
(-0.568845 -0.0872289 0)
(-0.526193 -0.149251 0)
(-0.460472 -0.199276 0)
(-0.376401 -0.230124 0)
(-0.281463 -0.235928 0)
(-0.185459 -0.213832 0)
(-0.0993857 -0.165603 0)
(-0.0352237 -0.098742 0)
(-0.00510905 -0.0275184 0)
(-0.00883352 0.0611412 0)
(-0.0484831 0.165273 0)
(-0.122511 0.241888 0)
(-0.21437 0.288595 0)
(-0.31307 0.306822 0)
(-0.411178 0.299207 0)
(-0.502234 0.268573 0)
(-0.580539 0.217666 0)
(-0.641098 0.149376 0)
(-0.679561 0.0672433 0)
(-0.69234 -0.0239714 0)
(-0.67692 -0.117852 0)
(-0.632362 -0.206193 0)
(-0.55995 -0.279336 0)
(-0.46393 -0.327142 0)
(-0.352077 -0.340714 0)
(-0.23561 -0.314762 0)
(-0.12824 -0.250048 0)
(-0.0461931 -0.155154 0)
(-0.00687158 -0.047615 0)
(-0.0102986 0.0885727 0)
(-0.0560242 0.230526 0)
(-0.14065 0.330905 0)
(-0.24474 0.390044 0)
(-0.355778 0.411588 0)
(-0.465772 0.399862 0)
(-0.568068 0.358887 0)
(-0.656931 0.292238 0)
(-0.727319 0.203422 0)
(-0.774656 0.0965794 0)
(-0.794827 -0.0227498 0)
(-0.784425 -0.146963 0)
(-0.741279 -0.26603 0)
(-0.665295 -0.367638 0)
(-0.559571 -0.438121 0)
(-0.431551 -0.464476 0)
(-0.293561 -0.437489 0)
(-0.162322 -0.35542 0)
(-0.0593956 -0.227065 0)
(-0.00904576 -0.0736477 0)
(-0.0115857 0.119757 0)
(-0.0626422 0.30417 0)
(-0.156499 0.430616 0)
(-0.271087 0.502913 0)
(-0.392563 0.527652 0)
(-0.512578 0.511386 0)
(-0.624543 0.459641 0)
(-0.722969 0.376898 0)
(-0.803032 0.267166 0)
(-0.860149 0.1349 0)
(-0.889793 -0.013986 0)
(-0.887613 -0.17115 0)
(-0.849931 -0.325098 0)
(-0.774708 -0.460938 0)
(-0.663045 -0.561021 0)
(-0.521065 -0.607018 0)
(-0.361405 -0.583817 0)
(-0.203704 -0.484883 0)
(-0.076059 -0.317602 0)
(-0.0119597 -0.10708 0)
(-0.0127153 0.154204 0)
(-0.0683651 0.385043 0)
(-0.169939 0.539336 0)
(-0.292875 0.625139 0)
(-0.422169 0.652774 0)
(-0.549371 0.631624 0)
(-0.668278 0.569065 0)
(-0.774012 0.470579 0)
(-0.862349 0.340542 0)
(-0.929054 0.183375 0)
(-0.969488 0.00484517 0)
(-0.978526 -0.186617 0)
(-0.950901 -0.378707 0)
(-0.882163 -0.554393 0)
(-0.770468 -0.691909 0)
(-0.619216 -0.766476 0)
(-0.439837 -0.754681 0)
(-0.25403 -0.641813 0)
(-0.097443 -0.430832 0)
(-0.0159954 -0.150079 0)
(-0.0137551 0.191467 0)
(-0.0733833 0.471956 0)
(-0.181098 0.655092 0)
(-0.309741 0.75401 0)
(-0.443277 0.783716 0)
(-0.573467 0.757137 0)
(-0.694922 0.683909 0)
(-0.803845 0.570643 0)
(-0.897105 0.421959 0)
(-0.971345 0.241889 0)
(-1.02234 0.035454 0)
(-1.04464 -0.189649 0)
(-1.03165 -0.421294 0)
(-0.976334 -0.641255 0)
(-0.873031 -0.824148 0)
(-0.720702 -0.938097 0)
(-0.52717 -0.948843 0)
(-0.314082 -0.828874 0)
(-0.124827 -0.571449 0)
(-0.0216403 -0.205565 0)
(-0.0149007 0.231292 0)
(-0.0782885 0.563891 0)
(-0.190697 0.775666 0)
(-0.321882 0.886015 0)
(-0.454869 0.91592 0)
(-0.582098 0.88275 0)
(-0.699557 0.798884 0)
(-0.805118 0.67223 0)
(-0.897358 0.507568 0)
(-0.974457 0.308222 0)
(-1.03334 0.0778834 0)
(-1.06904 -0.177404 0)
(-1.07431 -0.446972 0)
(-1.03986 -0.712957 0)
(-0.955765 -0.947783 0)
(-0.814811 -1.11288 0)
(-0.618016 -1.16113 0)
(-0.383088 -1.04654 0)
(-0.15946 -0.744187 0)
(-0.029568 -0.277298 0)
(-0.0166111 0.273957 0)
(-0.0844311 0.660364 0)
(-0.200509 0.898699 0)
(-0.330451 1.01668 0)
(-0.456548 1.04318 0)
(-0.572676 1.00113 0)
(-0.677012 0.906189 0)
(-0.769817 0.767723 0)
(-0.852049 0.590622 0)
(-0.924151 0.377273 0)
(-0.985067 0.129562 0)
(-1.03134 -0.148977 0)
(-1.05627 -0.450562 0)
(-1.04936 -0.759793 0)
(-0.996772 -1.04946 0)
(-0.88396 -1.27642 0)
(-0.70159 -1.38028 0)
(-0.457585 -1.29084 0)
(-0.202384 -0.952734 0)
(-0.0407497 -0.37003 0)
(-0.0198496 0.320914 0)
(-0.0944375 0.762 0)
(-0.2138 1.02176 0)
(-0.337713 1.14026 0)
(-0.448381 1.15717 0)
(-0.542511 1.10235 0)
(-0.621639 0.995151 0)
(-0.68927 0.846438 0)
(-0.749407 0.661132 0)
(-0.805392 0.440551 0)
(-0.858979 0.184515 0)
(-0.909344 -0.106555 0)
(-0.951844 -0.429039 0)
(-0.976585 -0.772348 0)
(-0.967406 -1.11327 0)
(-0.902647 -1.40838 0)
(-0.759766 -1.58675 0)
(-0.529644 -1.55029 0)
(-0.253922 -1.19779 0)
(-0.056574 -0.489701 0)
(-0.0265015 0.375934 0)
(-0.112892 0.871178 0)
(-0.23545 1.142 0)
(-0.346253 1.24891 0)
(-0.429405 1.24668 0)
(-0.486966 1.17337 0)
(-0.52551 1.05202 0)
(-0.552723 0.894693 0)
(-0.576149 0.706064 0)
(-0.602361 0.486291 0)
(-0.636362 0.233132 0)
(-0.680783 -0.0562386 0)
(-0.734537 -0.38309 0)
(-0.790676 -0.743652 0)
(-0.833688 -1.12282 0)
(-0.83725 -1.48345 0)
(-0.765098 -1.75122 0)
(-0.584189 -1.80193 0)
(-0.312333 -1.47353 0)
(-0.0788241 -0.643361 0)
(-0.0400003 0.44699 0)
(-0.14689 0.992264 0)
(-0.270617 1.25469 0)
(-0.355494 1.33086 0)
(-0.392758 1.29617 0)
(-0.39411 1.19734 0)
(-0.373268 1.06006 0)
(-0.34285 0.896493 0)
(-0.313981 0.710416 0)
(-0.296195 0.50063 0)
(-0.297478 0.263069 0)
(-0.324006 -0.00788379 0)
(-0.379119 -0.318152 0)
(-0.461037 -0.671639 0)
(-0.558883 -1.06479 0)
(-0.646893 -1.47446 0)
(-0.67891 -1.83513 0)
(-0.59487 -2.00764 0)
(-0.370409 -1.76202 0)
(-0.108876 -0.838206 0)
(-0.0657035 0.549379 0)
(-0.204714 1.12993 0)
(-0.318304 1.34876 0)
(-0.350997 1.36633 0)
(-0.313227 1.28342 0)
(-0.2324 1.15298 0)
(-0.130988 1.00032 0)
(-0.0262782 0.835381 0)
(0.0680521 0.659727 0)
(0.140808 0.470434 0)
(0.182304 0.261982 0)
(0.183849 0.0269666 0)
(0.13805 -0.243777 0)
(0.0404249 -0.560735 0)
(-0.106581 -0.932945 0)
(-0.285229 -1.35778 0)
(-0.449351 -1.7943 0)
(-0.517633 -2.11214 0)
(-0.407648 -2.02621 0)
(-0.14417 -1.08041 0)
(-0.108519 0.711998 0)
(-0.286006 1.2805 0)
(-0.348874 1.39328 0)
(-0.276032 1.31774 0)
(-0.119703 1.17484 0)
(0.0729699 1.01402 0)
(0.27286 0.853701 0)
(0.461174 0.697933 0)
(0.624803 0.544368 0)
(0.753659 0.387947 0)
(0.838791 0.22223 0)
(0.871175 0.0394243 0)
(0.84123 -0.170478 0)
(0.739126 -0.421164 0)
(0.557161 -0.731141 0)
(0.297678 -1.11973 0)
(-0.00905838 -1.58518 0)
(-0.28148 -2.04254 0)
(-0.375947 -2.19981 0)
(-0.16773 -1.37325 0)
(-0.15538 0.978238 0)
(-0.339985 1.40013 0)
(-0.237006 1.30613 0)
(0.0335235 1.11448 0)
(0.355042 0.923519 0)
(0.674749 0.754099 0)
(0.969669 0.608471 0)
(1.22791 0.481735 0)
(1.44267 0.366963 0)
(1.609 0.257386 0)
(1.72179 0.146647 0)
(1.77439 0.0281869 0)
(1.75788 -0.106074 0)
(1.66004 -0.268137 0)
(1.46501 -0.478096 0)
(1.15653 -0.768694 0)
(0.730966 -1.18036 0)
(0.228063 -1.71286 0)
(-0.173243 -2.15879 0)
(-0.118883 -1.67442 0)
(-0.0474995 1.26918 0)
(-0.0719525 1.31656 0)
(0.411462 0.968737 0)
(0.958125 0.709378 0)
(1.42934 0.529208 0)
(1.82289 0.398311 0)
(2.14891 0.301049 0)
(2.41375 0.226058 0)
(2.62219 0.164523 0)
(2.77726 0.110063 0)
(2.87943 0.0579692 0)
(2.92626 0.00426323 0)
(2.91203 -0.0552951 0)
(2.82627 -0.127334 0)
(2.65114 -0.224338 0)
(2.35775 -0.373202 0)
(1.90125 -0.630236 0)
(1.22415 -1.07893 0)
(0.45265 -1.68806 0)
(0.217406 -1.70128 0)
(1.43793 0.707035 0)
(1.8353 0.626431 0)
(2.56279 0.398179 0)
(3.13675 0.251599 0)
(3.51106 0.164207 0)
(3.76819 0.109394 0)
(3.9557 0.0739758 0)
(4.09402 0.0502181 0)
(4.19413 0.0331069 0)
(4.26247 0.0195126 0)
(4.30211 0.00748661 0)
(4.31358 -0.00430848 0)
(4.29501 -0.0169518 0)
(4.24165 -0.0321656 0)
(4.14369 -0.053166 0)
(3.97999 -0.087962 0)
(3.70132 -0.158323 0)
(3.17337 -0.31609 0)
(2.2988 -0.622595 0)
(1.66775 -0.779644 0)
)
;

boundaryField
{
    movingWall
    {
        type            fixedValue;
        value           uniform (5.07265 0 0);
    }
    fixedWalls
    {
        type            noSlip;
    }
    frontAndBack
    {
        type            empty;
    }
}


// ************************************************************************* //
