/*--------------------------------*- C++ -*----------------------------------*\
  =========                 |
  \\      /  F ield         | OpenFOAM: The Open Source CFD Toolbox
   \\    /   O peration     | Website:  https://openfoam.org
    \\  /    A nd           | Version:  9
     \\/     M anipulation  |
\*---------------------------------------------------------------------------*/
FoamFile
{
    format      ascii;
    class       volScalarField;
    location    "0.1";
    object      p;
}
// * * * * * * * * * * * * * * * * * * * * * * * * * * * * * * * * * * * * * //

dimensions      [0 2 -2 0 0 0 0];

internalField   nonuniform List<scalar> 
40
(
-0.0974478
-0.19674
-0.255336
-0.292225
-0.316277
-0.193061
-0.233911
-0.27087
-0.29823
-0.316589
-0.244439
-0.263204
-0.283606
-0.300783
-0.313644
-0.271124
-0.279627
-0.289161
-0.297931
-0.305243
-0.282285
-0.28514
-0.287434
-0.28959
-0.291824
-0.284019
-0.283369
-0.280913
-0.27844
-0.277443
-0.280444
-0.277954
-0.273496
-0.26913
-0.268832
-0.274668
-0.272083
-0.267972
-0.265835
-0.272742
)
;

boundaryField
{
    movingWall
    {
        type            zeroGradient;
    }
    fixedWalls
    {
        type            zeroGradient;
    }
    frontAndBack
    {
        type            empty;
    }
    procBoundary0to1
    {
        type            processor;
        value           nonuniform List<scalar> 5(-0.265233 -0.264225 -0.259604 -0.255852 -0.255924);
    }
    procBoundary0to2
    {
        type            processor;
        value           nonuniform List<scalar> 8(-0.314099 -0.314142 -0.309866 -0.300242 -0.28572 -0.269699 -0.257629 -0.253567);
    }
}


// ************************************************************************* //
