/*--------------------------------*- C++ -*----------------------------------*\
| =========                 |                                                 |
| \\      /  F ield         | OpenFOAM: The Open Source CFD Toolbox           |
|  \\    /   O peration     | Version:  2212                                  |
|   \\  /    A nd           | Website:  www.openfoam.com                      |
|    \\/     M anipulation  |                                                 |
\*---------------------------------------------------------------------------*/
FoamFile
{
    version     2.0;
    format      ascii;
    arch        "LSB;label=32;scalar=64";
    class       volVectorField;
    location    "0.1";
    object      U;
}
// * * * * * * * * * * * * * * * * * * * * * * * * * * * * * * * * * * * * * //

dimensions      [0 1 -1 0 0 0 0];

internalField   nonuniform List<vector> 
46
(
(0.313802 0 0)
(0.288167 0 0)
(0.254407 0 0)
(0.211819 0 0)
(0.379923 0 0)
(0.35176 0 0)
(0.313741 0 0)
(0.264335 0 0)
(0.20241 0 0)
(0.128108 0 0)
(0.0440163 0 0)
(0.45669 0 0)
(0.42721 0 0)
(0.386172 0 0)
(0.330744 0 0)
(0.258035 0 0)
(0.166399 0 0)
(0.058008 0 0)
(0.544702 0 0)
(0.515982 0 0)
(0.474501 0 0)
(0.415648 0 0)
(0.333474 0 0)
(0.22199 0 0)
(0.0798068 0 0)
(0.643887 0 0)
(0.618977 0 0)
(0.581448 0 0)
(0.524879 0 0)
(0.438961 0 0)
(0.308726 0 0)
(0.119187 0 0)
(0.753035 0 0)
(0.735681 0 0)
(0.708366 0 0)
(0.664208 0 0)
(0.589313 0 0)
(0.455103 0 0)
(0.207516 0 0)
(0.869328 0 0)
(0.863019 0 0)
(0.852707 0 0)
(0.834737 0 0)
(0.799321 0 0)
(0.715064 0 0)
(0.46336 0 0)
)
;

boundaryField
{
    movingWall
    {
        type            fixedValue;
        value           uniform (0.928803 0 0);
    }
    fixedWalls
    {
        type            noSlip;
    }
    frontAndBack
    {
        type            empty;
    }
    procBoundary8to4
    {
        type            processor;
        value           uniform (0.332146 0 0);
    }
    procBoundary8to5
    {
        type            processor;
        value           nonuniform List<vector> 8((0.257405 0 0) (0.234861 0 0) (0.205751 0 0) (0.169848 0 0) (0.160175 0 0) (0.160175 0 0) (0.100222 0 0) (0.0341729 0 0));
    }
    procBoundary8to7
    {
        type            processor;
        value           nonuniform List<vector> 6((0.399689 0 0) (0.47691 0 0) (0.563885 0 0) (0.660061 0 0) (0.764003 0 0) (0.873237 0 0));
    }
}


// ************************************************************************* //
