/*--------------------------------*- C++ -*----------------------------------*\
| =========                 |                                                 |
| \\      /  F ield         | OpenFOAM: The Open Source CFD Toolbox           |
|  \\    /   O peration     | Version:  2212                                  |
|   \\  /    A nd           | Website:  www.openfoam.com                      |
|    \\/     M anipulation  |                                                 |
\*---------------------------------------------------------------------------*/
FoamFile
{
    version     2.0;
    format      ascii;
    arch        "LSB;label=32;scalar=64";
    class       volVectorField;
    location    "0.2";
    object      U;
}
// * * * * * * * * * * * * * * * * * * * * * * * * * * * * * * * * * * * * * //

dimensions      [0 1 -1 0 0 0 0];

internalField   nonuniform List<vector> 
45
(
(0.0305927 0 0)
(0.0902323 0 0)
(0.145594 0 0)
(0.0377004 0 0)
(0.110717 0 0)
(0.177379 0 0)
(0.235304 0 0)
(0.283593 0 0)
(0.322334 0 0)
(0.0472221 0 0)
(0.137646 0 0)
(0.218044 0 0)
(0.285676 0 0)
(0.340264 0 0)
(0.38281 0 0)
(0.0607908 0 0)
(0.174679 0 0)
(0.271606 0 0)
(0.349271 0 0)
(0.409197 0 0)
(0.454165 0 0)
(0.082076 0 0)
(0.228741 0 0)
(0.344541 0 0)
(0.430756 0 0)
(0.493276 0 0)
(0.537963 0 0)
(0.120867 0 0)
(0.313722 0 0)
(0.44715 0 0)
(0.536058 0 0)
(0.595342 0 0)
(0.635243 0 0)
(0.208548 0 0)
(0.458172 0 0)
(0.594344 0 0)
(0.671076 0 0)
(0.716902 0 0)
(0.745673 0 0)
(0.463708 0 0)
(0.716099 0 0)
(0.801018 0 0)
(0.837053 0 0)
(0.855585 0 0)
(0.866389 0 0)
)
;

boundaryField
{
    movingWall
    {
        type            fixedValue;
        value           uniform (0.928803 0 0);
    }
    fixedWalls
    {
        type            noSlip;
    }
    frontAndBack
    {
        type            empty;
    }
    procBoundary6to3
    {
        type            processor;
        value           nonuniform List<vector> 7((0.0250632 0 0) (0.0741219 0 0) (0.120159 0 0) (0.194768 0 0) (0.194768 0 0) (0.236723 0 0) (0.271121 0 0));
    }
    procBoundary6to7
    {
        type            processor;
        value           nonuniform List<vector> 7((0.352114 0 0) (0.41474 0 0) (0.486916 0 0) (0.569348 0 0) (0.662127 0 0) (0.76424 0 0) (0.873107 0 0));
    }
}


// ************************************************************************* //
