/*--------------------------------*- C++ -*----------------------------------*\
| =========                 |                                                 |
| \\      /  F ield         | OpenFOAM: The Open Source CFD Toolbox           |
|  \\    /   O peration     | Version:  2212                                  |
|   \\  /    A nd           | Website:  www.openfoam.com                      |
|    \\/     M anipulation  |                                                 |
\*---------------------------------------------------------------------------*/
FoamFile
{
    version     2.0;
    format      ascii;
    arch        "LSB;label=32;scalar=64";
    class       volVectorField;
    location    "0.3";
    object      U;
}
// * * * * * * * * * * * * * * * * * * * * * * * * * * * * * * * * * * * * * //

dimensions      [0 1 -1 0 0 0 0];

internalField   nonuniform List<vector> 
44
(
(0.00733666 0 0)
(0.00771584 0 0)
(0.00790747 0 0)
(0.00790749 0 0)
(0.00771589 0 0)
(0.00733671 0 0)
(0.00677808 0 0)
(0.0221945 0 0)
(0.0233404 0 0)
(0.0239195 0 0)
(0.0239195 0 0)
(0.0233406 0 0)
(0.0221947 0 0)
(0.0205061 0 0)
(0.0376102 0 0)
(0.039548 0 0)
(0.0405269 0 0)
(0.040527 0 0)
(0.0395482 0 0)
(0.0376105 0 0)
(0.0347543 0 0)
(0.0539699 0 0)
(0.056741 0 0)
(0.0581403 0 0)
(0.0581403 0 0)
(0.0567411 0 0)
(0.0539702 0 0)
(0.0498834 0 0)
(0.0716805 0 0)
(0.0753422 0 0)
(0.0771901 0 0)
(0.0771899 0 0)
(0.0753422 0 0)
(0.0716805 0 0)
(0.0662753 0 0)
(0.0911784 0 0)
(0.0958031 0 0)
(0.0981348 0 0)
(0.0981338 0 0)
(0.0958028 0 0)
(0.0911778 0 0)
(0.0843424 0 0)
(0.11861 0 0)
(0.112937 0 0)
)
;

boundaryField
{
    movingWall
    {
        type            fixedValue;
        value           nonuniform List<vector> 0();
    }
    fixedWalls
    {
        type            noSlip;
    }
    frontAndBack
    {
        type            empty;
    }
    procBoundary1to0
    {
        type            processor;
        value           nonuniform List<vector> 6((0.00677825 0 0) (0.0205067 0 0) (0.0347552 0 0) (0.0498848 0 0) (0.0662778 0 0) (0.0843478 0 0));
    }
    procBoundary1to2
    {
        type            processor;
        value           nonuniform List<vector> 8((0.00605268 0 0) (0.018313 0 0) (0.0310428 0 0) (0.0445687 0 0) (0.059239 0 0) (0.0754337 0 0) (0.104544 0 0) (0.104544 0 0));
    }
    procBoundary1to4
    {
        type            processor;
        value           nonuniform List<vector> 7((0.112945 0 0) (0.118617 0 0) (0.121473 0 0) (0.121469 0 0) (0.121469 0 0) (0.144304 0 0) (0.137491 0 0));
    }
}


// ************************************************************************* //
