/*--------------------------------*- C++ -*----------------------------------*\
  =========                 |
  \\      /  F ield         | OpenFOAM: The Open Source CFD Toolbox
   \\    /   O peration     | Website:  https://openfoam.org
    \\  /    A nd           | Version:  9
     \\/     M anipulation  |
\*---------------------------------------------------------------------------*/
FoamFile
{
    format      ascii;
    class       volScalarField;
    location    "0.05";
    object      p;
}
// * * * * * * * * * * * * * * * * * * * * * * * * * * * * * * * * * * * * * //

dimensions      [0 2 -2 0 0 0 0];

internalField   nonuniform List<scalar> 
40
(
-0.86913
-0.880733
-0.881648
-0.874008
-0.859111
-0.875934
-0.885408
-0.885469
-0.877627
-0.863113
-0.884171
-0.891456
-0.891219
-0.884526
-0.871808
-0.891095
-0.897706
-0.898474
-0.894318
-0.884452
-0.895142
-0.903907
-0.907649
-0.907314
-0.900755
-0.897659
-0.911702
-0.92042
-0.924928
-0.921724
-0.902291
-0.923576
-0.938791
-0.948916
-0.949047
-0.910638
-0.938045
-0.960984
-0.978545
-0.983037
)
;

boundaryField
{
    movingWall
    {
        type            zeroGradient;
    }
    fixedWalls
    {
        type            zeroGradient;
    }
    frontAndBack
    {
        type            empty;
    }
    procBoundary2to0
    {
        type            processor;
        value           nonuniform List<scalar> 8(-0.831477 -0.841805 -0.856276 -0.869474 -0.879124 -0.886986 -0.898025 -0.916704);
    }
    procBoundary2to3
    {
        type            processor;
        value           nonuniform List<scalar> 5(-0.958091 -0.977485 -0.998415 -1.01819 -1.02704);
    }
    procBoundary2to5
    {
        type            processor;
        value           nonuniform List<scalar> 8(-0.841802 -0.84594 -0.856498 -0.872189 -0.892406 -0.917307 -0.948152 -0.987063);
    }
}


// ************************************************************************* //
