/*--------------------------------*- C++ -*----------------------------------*\
  =========                 |
  \\      /  F ield         | OpenFOAM: The Open Source CFD Toolbox
   \\    /   O peration     | Website:  https://openfoam.org
    \\  /    A nd           | Version:  9
     \\/     M anipulation  |
\*---------------------------------------------------------------------------*/
FoamFile
{
    format      ascii;
    class       volVectorField;
    location    "0.025";
    object      U;
}
// * * * * * * * * * * * * * * * * * * * * * * * * * * * * * * * * * * * * * //

dimensions      [0 1 -1 0 0 0 0];

internalField   nonuniform List<vector> 
40
(
(-0.0329293 0.00256874 0)
(-0.039075 0.00250253 0)
(-0.0449277 0.00242591 0)
(-0.0499565 0.00199405 0)
(-0.053195 0.00107377 0)
(-0.0744057 0.0121831 0)
(-0.0886582 0.0114517 0)
(-0.101325 0.0103993 0)
(-0.111508 0.00807576 0)
(-0.117625 0.00423765 0)
(-0.106146 0.0296162 0)
(-0.125291 0.027151 0)
(-0.141766 0.0236904 0)
(-0.154412 0.0177134 0)
(-0.161493 0.00900134 0)
(-0.130587 0.0514177 0)
(-0.15363 0.0465078 0)
(-0.173191 0.0396752 0)
(-0.187896 0.0288969 0)
(-0.195785 0.0141951 0)
(-0.148462 0.0769554 0)
(-0.174994 0.0691218 0)
(-0.197584 0.0582362 0)
(-0.214564 0.0417608 0)
(-0.223733 0.0200697 0)
(-0.161323 0.105832 0)
(-0.191128 0.0949762 0)
(-0.216804 0.0796352 0)
(-0.236391 0.0568569 0)
(-0.247594 0.0275717 0)
(-0.17226 0.137215 0)
(-0.205553 0.123605 0)
(-0.234418 0.103807 0)
(-0.256617 0.074781 0)
(-0.27086 0.0376926 0)
(-0.189432 0.171167 0)
(-0.227059 0.154631 0)
(-0.25917 0.13022 0)
(-0.283648 0.0948962 0)
(-0.298348 0.0501492 0)
)
;

boundaryField
{
    movingWall
    {
        type            fixedValue;
        value           nonuniform List<vector> 0();
    }
    fixedWalls
    {
        type            noSlip;
    }
    frontAndBack
    {
        type            empty;
    }
    procBoundary2to0
    {
        type            processor;
        value           nonuniform List<vector> 8((-0.0265646 0.00278462 0) (-0.059178 0.0131169 0) (-0.085454 0.032173 0) (-0.105624 0.0561916 0) (-0.120011 0.0843752 0) (-0.129969 0.11587 0) (-0.137973 0.149676 0) (-0.150368 0.184892 0));
    }
    procBoundary2to3
    {
        type            processor;
        value           nonuniform List<vector> 5((-0.222464 0.211229 0) (-0.266288 0.190608 0) (-0.30096 0.159413 0) (-0.32509 0.115695 0) (-0.336753 0.0623637 0));
    }
    procBoundary2to5
    {
        type            processor;
        value           nonuniform List<vector> 8((-0.0543347 7.40773e-05 0) (-0.11974 4.81449e-05 0) (-0.163575 -0.000508174 0) (-0.197909 -0.0017721 0) (-0.226572 -0.00337125 0) (-0.252485 -0.00417058 0) (-0.277934 -0.00278034 0) (-0.307145 0.000938244 0));
    }
}


// ************************************************************************* //
