/*--------------------------------*- C++ -*----------------------------------*\
  =========                 |
  \\      /  F ield         | OpenFOAM: The Open Source CFD Toolbox
   \\    /   O peration     | Website:  https://openfoam.org
    \\  /    A nd           | Version:  9
     \\/     M anipulation  |
\*---------------------------------------------------------------------------*/
FoamFile
{
    format      ascii;
    class       surfaceScalarField;
    location    "0.025";
    object      phi;
}
// * * * * * * * * * * * * * * * * * * * * * * * * * * * * * * * * * * * * * //

dimensions      [0 3 -1 0 0 0 0];

internalField   nonuniform List<scalar> 
67
(
-1.93895e-06
-3.91369e-07
-1.44511e-06
-4.93838e-07
-9.08951e-07
-5.36161e-07
-4.16158e-07
-4.92793e-07
-6.67037e-08
-3.49454e-07
-6.67035e-08
-4.31051e-06
-1.22668e-06
-3.29537e-06
-1.50898e-06
-2.19817e-06
-1.63335e-06
-1.16171e-06
-1.52926e-06
-3.4831e-07
-1.16285e-06
-4.15013e-07
-5.87681e-06
-2.35401e-06
-4.53315e-06
-2.85264e-06
-3.08048e-06
-3.08603e-06
-1.68464e-06
-2.9251e-06
-5.44294e-07
-2.3032e-06
-9.59307e-07
-7.09744e-06
-3.72848e-06
-5.48596e-06
-4.46412e-06
-3.75585e-06
-4.81614e-06
-2.07382e-06
-4.60713e-06
-6.7998e-07
-3.69704e-06
-1.63929e-06
-8.14953e-06
-5.33598e-06
-6.27273e-06
-6.34092e-06
-4.27957e-06
-6.8093e-06
-2.36846e-06
-6.51823e-06
-7.76287e-07
-5.28921e-06
-2.41557e-06
-9.25635e-06
-7.08313e-06
-4.80899e-06
-9.08344e-06
-2.6231e-06
-8.70412e-06
-8.46294e-07
-7.06601e-06
-3.26187e-06
-5.57661e-06
-3.01252e-06
-9.47584e-07
)
;

boundaryField
{
    movingWall
    {
        type            calculated;
        value           nonuniform List<scalar> 0();
    }
    fixedWalls
    {
        type            calculated;
        value           uniform 0;
    }
    frontAndBack
    {
        type            empty;
        value           nonuniform List<scalar> 0();
    }
    procBoundary7to5
    {
        type            processor;
        value           nonuniform List<scalar> 6(2.33032e-06 5.14581e-06 7.00414e-06 8.47191e-06 9.75703e-06 1.11195e-05);
    }
    procBoundary7to8
    {
        type            processor;
        value           nonuniform List<scalar> 7(-7.19912e-06 -8.51413e-06 8.28548e-06 -1.17923e-05 -1.12682e-05 -9.13095e-06 -4.20945e-06);
    }
}


// ************************************************************************* //
