/*--------------------------------*- C++ -*----------------------------------*\
  =========                 |
  \\      /  F ield         | OpenFOAM: The Open Source CFD Toolbox
   \\    /   O peration     | Website:  https://openfoam.org
    \\  /    A nd           | Version:  9
     \\/     M anipulation  |
\*---------------------------------------------------------------------------*/
FoamFile
{
    format      ascii;
    class       surfaceScalarField;
    location    "0.06";
    object      phi;
}
// * * * * * * * * * * * * * * * * * * * * * * * * * * * * * * * * * * * * * //

dimensions      [0 3 -1 0 0 0 0];

internalField   nonuniform List<scalar> 
66
(
-4.38881e-05
3.46343e-06
-4.41736e-05
-6.50777e-06
-4.31208e-05
-1.71711e-05
-2.81003e-05
-4.40933e-05
5.01343e-06
-4.48385e-05
-5.76256e-06
-4.4498e-05
-1.75117e-05
-2.99404e-05
-4.11808e-05
6.54514e-06
-4.23326e-05
-4.61067e-06
-4.28537e-05
-1.69906e-05
-3.05108e-05
-3.38175e-05
7.73083e-06
-3.52041e-05
-3.22414e-06
-3.66346e-05
-1.55601e-05
-2.94614e-05
-2.05284e-05
8.16433e-06
-2.18668e-05
-1.8857e-06
-2.41072e-05
-1.33198e-05
-2.66066e-05
3.21018e-07
7.50554e-06
-6.65429e-07
-8.9925e-07
-3.47846e-06
-1.05067e-05
-2.19902e-05
3.05275e-05
5.66947e-06
3.0075e-05
-4.46776e-07
2.69909e-05
-7.42266e-06
-1.59759e-05
7.20972e-05
3.0705e-06
7.20683e-05
-4.17894e-07
6.89966e-05
-4.35091e-06
-9.28794e-06
0.0001268
7.48044e-07
0.000126772
-3.8959e-07
0.000124055
-1.63444e-06
-3.2366e-06
0.000194143
0.000193754
0.000192119
)
;

boundaryField
{
    movingWall
    {
        type            calculated;
        value           uniform 0;
    }
    fixedWalls
    {
        type            calculated;
        value           nonuniform List<scalar> 0();
    }
    frontAndBack
    {
        type            empty;
        value           nonuniform List<scalar> 0();
    }
    procBoundary6to3
    {
        type            processor;
        value           nonuniform List<scalar> 5(4.253e-05 4.25433e-05 3.9649e-05 3.26318e-05 2.00949e-05);
    }
    procBoundary6to4
    {
        type            processor;
        value           nonuniform List<scalar> 5(3.37768e-07 -2.86914e-05 -6.94983e-05 -0.000124477 -0.000193395);
    }
    procBoundary6to5
    {
        type            processor;
        value           nonuniform List<scalar> 4(-2.10541e-06 6.79327e-06 1.61183e-05 2.53825e-05);
    }
    procBoundary6to8
    {
        type            processor;
        value           nonuniform List<scalar> 4(-4.0403e-05 -4.26579e-05 -4.22833e-05 -3.7684e-05);
    }
    procBoundary6to9
    {
        type            processor;
        value           nonuniform List<scalar> 6(-2.6962e-05 -8.09484e-06 2.09766e-05 6.23086e-05 0.000118004 0.000188883);
    }
}


// ************************************************************************* //
