/*--------------------------------*- C++ -*----------------------------------*\
  =========                 |
  \\      /  F ield         | OpenFOAM: The Open Source CFD Toolbox
   \\    /   O peration     | Website:  https://openfoam.org
    \\  /    A nd           | Version:  8
     \\/     M anipulation  |
\*---------------------------------------------------------------------------*/
FoamFile
{
    version     2.0;
    format      ascii;
    class       volScalarField;
    location    "1";
    object      p;
}
// * * * * * * * * * * * * * * * * * * * * * * * * * * * * * * * * * * * * * //

dimensions      [0 2 -2 0 0 0 0];

internalField   nonuniform List<scalar> 
400
(
-0.0991562
-0.19812
-0.251254
-0.276624
-0.280255
-0.26804
-0.243101
-0.206027
-0.159461
-0.106395
-0.0490599
0.0103589
0.0690961
0.12401
0.172227
0.211699
0.241433
0.261415
0.272425
0.276086
-0.198508
-0.238973
-0.268494
-0.283639
-0.282622
-0.267768
-0.241428
-0.204294
-0.158553
-0.10656
-0.0501347
0.00870191
0.067169
0.121992
0.170105
0.209287
0.238468
0.257575
0.266972
0.26662
-0.250193
-0.268397
-0.280199
-0.284599
-0.27727
-0.259922
-0.233854
-0.198761
-0.156187
-0.107913
-0.0550858
0.00083406
0.0572621
0.110696
0.157588
0.195291
0.222623
0.239727
0.247167
0.245416
-0.273194
-0.280691
-0.280695
-0.2765
-0.263875
-0.244748
-0.220003
-0.188509
-0.151183
-0.109191
-0.0627683
-0.0124348
0.0397216
0.0900652
0.134497
0.169806
0.19456
0.209026
0.214113
0.210861
-0.278019
-0.27905
-0.271603
-0.261011
-0.244053
-0.223506
-0.200422
-0.173104
-0.141983
-0.107904
-0.0703137
-0.0285566
0.0161986
0.0605694
0.100177
0.131426
0.152648
0.164021
0.166756
0.162286
-0.270332
-0.267627
-0.255719
-0.24104
-0.221105
-0.199731
-0.178632
-0.155744
-0.130994
-0.105429
-0.0782947
-0.0478165
-0.0137545
0.0214536
0.053727
0.0793741
0.0964521
0.10475
0.105723
0.100979
-0.255761
-0.251825
-0.238257
-0.222215
-0.201248
-0.179961
-0.161169
-0.142758
-0.123663
-0.105583
-0.0887075
-0.0708018
-0.0499512
-0.0267708
-0.0041073
0.014815
0.0277818
0.0337773
0.0341974
0.0304796
-0.239634
-0.236792
-0.224501
-0.210291
-0.190985
-0.171262
-0.155313
-0.141923
-0.127869
-0.115189
-0.106343
-0.100049
-0.0930314
-0.0833413
-0.0714858
-0.0594332
-0.0495702
-0.0442328
-0.0427638
-0.0445131
-0.22438
-0.224893
-0.216887
-0.20821
-0.19444
-0.1791
-0.167149
-0.160704
-0.152924
-0.144299
-0.140161
-0.142091
-0.146694
-0.149393
-0.147492
-0.140856
-0.131821
-0.124611
-0.12043
-0.120416
-0.208229
-0.213787
-0.212746
-0.213422
-0.21031
-0.204525
-0.198647
-0.202445
-0.205324
-0.202723
-0.201449
-0.207351
-0.218937
-0.230057
-0.234745
-0.230185
-0.218321
-0.205738
-0.197027
-0.196605
-0.185044
-0.196185
-0.20464
-0.218402
-0.231714
-0.244078
-0.248042
-0.265397
-0.285258
-0.294913
-0.298834
-0.306548
-0.320224
-0.334161
-0.340241
-0.333002
-0.313546
-0.29087
-0.274536
-0.274327
-0.145661
-0.162242
-0.184321
-0.216122
-0.250927
-0.29302
-0.314353
-0.347524
-0.388447
-0.41746
-0.432603
-0.443909
-0.457142
-0.469002
-0.471348
-0.456921
-0.425141
-0.386355
-0.355843
-0.351812
-0.0812488
-0.10428
-0.148046
-0.207317
-0.266811
-0.347301
-0.398092
-0.450513
-0.511734
-0.562387
-0.593813
-0.612402
-0.624945
-0.631424
-0.626487
-0.602854
-0.556437
-0.495367
-0.438797
-0.418427
0.012966
-0.0209484
-0.0965274
-0.197916
-0.285945
-0.398517
-0.487184
-0.567205
-0.64933
-0.721072
-0.771398
-0.799105
-0.807066
-0.801036
-0.783962
-0.751553
-0.693165
-0.607404
-0.509873
-0.452538
0.138376
0.0835395
-0.025969
-0.174951
-0.303407
-0.425868
-0.541498
-0.657939
-0.774158
-0.877674
-0.957143
-0.99951
-0.983335
-0.941089
-0.896266
-0.851908
-0.788015
-0.684581
-0.539385
-0.425514
0.302148
0.20912
0.0778809
-0.0842837
-0.265859
-0.397306
-0.527545
-0.689691
-0.875144
-1.05187
-1.18675
-1.23992
-1.18249
-1.05129
-0.917553
-0.826084
-0.753389
-0.651599
-0.480147
-0.309847
0.524951
0.382513
0.239099
0.116605
-0.0926718
-0.292203
-0.515363
-0.782723
-1.07144
-1.33329
-1.51579
-1.57643
-1.49605
-1.26343
-0.954503
-0.668654
-0.483022
-0.390009
-0.265196
-0.0887471
0.837046
0.689864
0.543276
0.36661
0.0751519
-0.2699
-0.665174
-1.06725
-1.41575
-1.67834
-1.84425
-1.90803
-1.85913
-1.66442
-1.27371
-0.695144
-0.132039
0.200097
0.247544
0.314927
1.45396
1.25499
0.951326
0.481743
-0.106551
-0.645367
-1.08615
-1.44545
-1.73028
-1.94134
-2.08046
-2.1475
-2.13297
-2.00862
-1.71927
-1.1788
-0.310684
0.604398
1.10234
1.19894
2.09912
1.62239
0.829889
-0.00158832
-0.584878
-1.00251
-1.34145
-1.62723
-1.86011
-2.03792
-2.16052
-2.22663
-2.22776
-2.1435
-1.94082
-1.57469
-0.944225
0.126408
1.46115
2.18869
)
;

boundaryField
{
    movingWall
    {
        type            zeroGradient;
    }
    fixedWalls
    {
        type            zeroGradient;
    }
    frontAndBack
    {
        type            empty;
    }
}


// ************************************************************************* //
