/*--------------------------------*- C++ -*----------------------------------*\
  =========                 |
  \\      /  F ield         | OpenFOAM: The Open Source CFD Toolbox
   \\    /   O peration     | Website:  https://openfoam.org
    \\  /    A nd           | Version:  8
     \\/     M anipulation  |
\*---------------------------------------------------------------------------*/
FoamFile
{
    version     2.0;
    format      ascii;
    class       surfaceScalarField;
    location    "1";
    object      phi;
}
// * * * * * * * * * * * * * * * * * * * * * * * * * * * * * * * * * * * * * //

dimensions      [0 3 -1 0 0 0 0];

internalField   nonuniform List<scalar> 
760
(
6.40779e-08
-6.40484e-08
-1.33811e-07
1.9789e-07
-6.01221e-07
4.67412e-07
-1.24942e-06
6.482e-07
-1.98567e-06
7.36249e-07
-2.72893e-06
7.43263e-07
-3.41033e-06
6.81392e-07
-3.97048e-06
5.60156e-07
-4.35773e-06
3.87251e-07
-4.52934e-06
1.71603e-07
-4.45607e-06
-7.3262e-08
-4.12925e-06
-3.26823e-07
-3.56801e-06
-5.61244e-07
-2.8245e-06
-7.43508e-07
-1.98414e-06
-8.40356e-07
-1.15863e-06
-8.25513e-07
-4.7051e-07
-6.8812e-07
-2.98388e-08
-4.40672e-07
1.02166e-07
-1.32002e-07
1.02169e-07
-1.96165e-07
1.32107e-07
-9.65798e-07
9.67532e-07
-2.25606e-06
1.75767e-06
-3.90489e-06
2.29704e-06
-5.72633e-06
2.55768e-06
-7.54166e-06
2.5586e-06
-9.18947e-06
2.32919e-06
-1.05276e-05
1.89832e-06
-1.1435e-05
1.2946e-06
-1.18166e-05
5.53201e-07
-1.16137e-05
-2.76168e-07
-1.08166e-05
-1.12393e-06
-9.47723e-06
-1.90058e-06
-7.71677e-06
-2.50398e-06
-5.72294e-06
-2.83418e-06
-3.73342e-06
-2.81504e-06
-2.0021e-06
-2.41944e-06
-7.49992e-07
-1.69279e-06
-1.03255e-07
-7.78748e-07
-1.08399e-09
-5.05962e-07
6.38075e-07
-1.89176e-06
2.35332e-06
-3.96599e-06
3.8319e-06
-6.4883e-06
4.81935e-06
-9.20598e-06
5.27536e-06
-1.1877e-05
5.22957e-06
-1.42799e-05
4.73215e-06
-1.62186e-05
3.83703e-06
-1.75264e-05
2.6024e-06
-1.80745e-05
1.10123e-06
-1.77846e-05
-5.66068e-07
-1.66451e-05
-2.2634e-06
-1.47261e-05
-3.8196e-06
-1.21885e-05
-5.04155e-06
-9.28192e-06
-5.74076e-06
-6.32444e-06
-5.77252e-06
-3.66174e-06
-5.08214e-06
-1.6071e-06
-3.74742e-06
-3.71248e-07
-2.01461e-06
-3.72331e-07
-7.89181e-07
1.42726e-06
-2.7676e-06
4.33174e-06
-5.58586e-06
6.65016e-06
-8.90987e-06
8.14336e-06
-1.24243e-05
8.78982e-06
-1.58395e-05
8.64475e-06
-1.88941e-05
7.7867e-06
-2.13567e-05
6.29965e-06
-2.30301e-05
4.27583e-06
-2.37599e-05
1.83106e-06
-2.34486e-05
-8.77431e-07
-2.2073e-05
-3.63895e-06
-1.97032e-05
-6.18939e-06
-1.65161e-05
-8.22863e-06
-1.27986e-05
-9.45832e-06
-8.9312e-06
-9.63991e-06
-5.34748e-06
-8.66586e-06
-2.46855e-06
-6.62634e-06
-6.26051e-07
-3.85711e-06
-9.98381e-07
-1.04149e-06
2.46875e-06
-3.56876e-06
6.859e-06
-7.08091e-06
1.01623e-05
-1.11471e-05
1.22095e-05
-1.5392e-05
1.30347e-05
-1.94873e-05
1.27401e-05
-2.31446e-05
1.14439e-05
-2.61099e-05
9.26497e-06
-2.81645e-05
6.33043e-06
-2.91312e-05
2.7978e-06
-2.8888e-05
-1.12066e-06
-2.7387e-05
-5.13992e-06
-2.46781e-05
-8.89832e-06
-2.09311e-05
-1.19757e-05
-1.64504e-05
-1.3939e-05
-1.16709e-05
-1.44195e-05
-7.12259e-06
-1.32141e-05
-3.36171e-06
-1.03872e-05
-8.76827e-07
-6.34199e-06
-1.87521e-06
-1.2664e-06
3.73515e-06
-4.29295e-06
9.88555e-06
-8.44145e-06
1.43108e-05
-1.31893e-05
1.69574e-05
-1.81065e-05
1.79519e-05
-2.28347e-05
1.74682e-05
-2.70681e-05
1.56774e-05
-3.05405e-05
1.27374e-05
-3.30184e-05
8.80832e-06
-3.4303e-05
4.08234e-06
-3.42409e-05
-1.18269e-06
-3.2745e-05
-6.6359e-06
-2.98224e-05
-1.18208e-05
-2.56103e-05
-1.61878e-05
-2.04078e-05
-1.91415e-05
-1.46927e-05
-2.01346e-05
-9.10124e-06
-1.88056e-05
-4.3573e-06
-1.51312e-05
-1.15149e-06
-9.5478e-06
-3.0267e-06
-1.46622e-06
5.20137e-06
-4.93945e-06
1.33588e-05
-9.65835e-06
1.90297e-05
-1.50171e-05
2.23162e-05
-2.05388e-05
2.34736e-05
-2.58443e-05
2.27738e-05
-3.06222e-05
2.04553e-05
-3.46041e-05
1.67193e-05
-3.75497e-05
1.1754e-05
-3.92416e-05
5.77419e-06
-3.9491e-05
-9.33244e-07
-3.81576e-05
-7.96936e-06
-3.51831e-05
-1.47953e-05
-3.06407e-05
-2.07302e-05
-2.47915e-05
-2.49907e-05
-1.81327e-05
-2.67934e-05
-1.14069e-05
-2.55313e-05
-5.53893e-06
-2.09992e-05
-1.48237e-06
-1.36044e-05
-4.50906e-06
-1.64163e-06
6.84301e-06
-5.50531e-06
1.72225e-05
-1.07171e-05
2.42415e-05
-1.65961e-05
2.81952e-05
-2.26281e-05
2.95056e-05
-2.84251e-05
2.85708e-05
-3.36831e-05
2.57132e-05
-3.81455e-05
2.11817e-05
-4.15775e-05
1.5186e-05
-4.37512e-05
7.94793e-06
-4.44444e-05
-2.40032e-07
-4.34555e-05
-8.95834e-06
-4.06396e-05
-1.76111e-05
-3.59705e-05
-2.53993e-05
-2.96248e-05
-3.13364e-05
-2.20742e-05
-3.43441e-05
-1.41456e-05
-3.34598e-05
-6.99018e-06
-2.81546e-05
-1.90348e-06
-1.86911e-05
-6.41255e-06
-1.79342e-06
8.63643e-06
-5.9885e-06
2.14176e-05
-1.16017e-05
2.98547e-05
-1.78818e-05
3.44752e-05
-2.42875e-05
3.59113e-05
-3.04367e-05
3.47201e-05
-3.60501e-05
3.13265e-05
-4.09013e-05
2.6033e-05
-4.47795e-05
1.90642e-05
-4.74631e-05
1.06315e-05
-4.87079e-05
1.00474e-06
-4.82535e-05
-9.4127e-06
-4.58553e-05
-2.00094e-05
-4.1352e-05
-2.99025e-05
-3.47765e-05
-3.79119e-05
-2.65013e-05
-4.26193e-05
-1.73786e-05
-4.25825e-05
-8.78536e-06
-3.67478e-05
-2.45045e-06
-2.5026e-05
-8.863e-06
-1.92685e-06
1.05633e-05
-6.39734e-06
2.58881e-05
-1.23067e-05
3.57641e-05
-1.88324e-05
4.10009e-05
-2.54172e-05
4.24961e-05
-3.17036e-05
4.10064e-05
-3.74591e-05
3.70821e-05
-4.25121e-05
3.10859e-05
-4.67009e-05
2.3253e-05
-4.98367e-05
1.37672e-05
-5.16781e-05
2.84619e-06
-5.19242e-05
-9.1666e-06
-5.02326e-05
-2.1701e-05
-4.62813e-05
-3.38538e-05
-3.98943e-05
-4.42989e-05
-3.12414e-05
-5.12722e-05
-2.10871e-05
-5.27368e-05
-1.09791e-05
-4.68558e-05
-3.16196e-06
-3.28431e-05
-1.2025e-05
-2.05892e-06
1.26222e-05
-6.76571e-06
3.05948e-05
-1.28564e-05
4.18548e-05
-1.9428e-05
4.75725e-05
-2.59228e-05
4.89909e-05
-3.20335e-05
4.71171e-05
-3.76034e-05
4.2652e-05
-4.25454e-05
3.60278e-05
-4.67788e-05
2.74865e-05
-5.01826e-05
1.71709e-05
-5.25565e-05
5.22018e-06
-5.35965e-05
-8.12667e-06
-5.28887e-05
-2.24087e-05
-4.99484e-05
-3.67942e-05
-4.43357e-05
-4.99115e-05
-3.58941e-05
-5.97139e-05
-2.51222e-05
-6.35087e-05
-1.35891e-05
-5.83888e-05
-4.08189e-06
-4.23504e-05
-1.61069e-05
-2.22992e-06
1.48521e-05
-7.17398e-06
3.55389e-05
-1.3326e-05
4.80067e-05
-1.96883e-05
5.39349e-05
-2.57299e-05
5.50325e-05
-3.12326e-05
5.26199e-05
-3.61536e-05
4.75729e-05
-4.05244e-05
4.03987e-05
-4.4381e-05
3.13431e-05
-4.7709e-05
2.0499e-05
-5.03975e-05
7.90873e-06
-5.21948e-05
-6.32937e-06
-5.26723e-05
-2.19312e-05
-5.12185e-05
-3.82481e-05
-4.71114e-05
-5.40186e-05
-3.97505e-05
-6.70747e-05
-2.91331e-05
-7.41261e-05
-1.65639e-05
-7.09581e-05
-5.26122e-06
-5.3653e-05
-2.13681e-05
-2.52214e-06
1.73743e-05
-7.77462e-06
4.07914e-05
-1.3857e-05
5.40891e-05
-1.96722e-05
5.97501e-05
-2.47727e-05
6.0133e-05
-2.90921e-05
5.69394e-05
-3.27512e-05
5.12319e-05
-3.59382e-05
4.35858e-05
-3.88374e-05
3.42423e-05
-4.15772e-05
2.32387e-05
-4.4183e-05
1.05146e-05
-4.65214e-05
-3.99097e-06
-4.82327e-05
-2.022e-05
-4.86651e-05
-3.78156e-05
-4.68626e-05
-5.58211e-05
-4.17176e-05
-7.22197e-05
-3.24721e-05
-8.33716e-05
-1.97254e-05
-8.37048e-05
-6.75634e-06
-6.66221e-05
-2.81244e-05
-3.08974e-06
2.0464e-05
-8.81467e-06
4.65163e-05
-1.46407e-05
5.99151e-05
-1.94198e-05
6.45292e-05
-2.291e-05
6.36231e-05
-2.5297e-05
5.93264e-05
-2.69285e-05
5.28635e-05
-2.81856e-05
4.48428e-05
-2.94208e-05
3.54775e-05
-3.09244e-05
2.47423e-05
-3.28895e-05
1.24797e-05
-3.53583e-05
-1.52222e-06
-3.81356e-05
-1.74426e-05
-4.06636e-05
-3.52877e-05
-4.18919e-05
-5.45929e-05
-4.0261e-05
-7.38506e-05
-3.40737e-05
-8.95589e-05
-2.26652e-05
-9.51133e-05
-8.61154e-06
-8.06757e-05
-3.67359e-05
-4.19987e-06
2.46639e-05
-1.062e-05
5.29365e-05
-1.5794e-05
6.50892e-05
-1.87416e-05
6.74768e-05
-1.96692e-05
6.45507e-05
-1.9163e-05
5.88201e-05
-1.78674e-05
5.15679e-05
-1.63753e-05
4.33507e-05
-1.52023e-05
3.43045e-05
-1.47864e-05
2.43264e-05
-1.54834e-05
1.31768e-05
-1.75351e-05
5.29432e-07
-2.09866e-05
-1.39911e-05
-2.55285e-05
-3.07458e-05
-3.02499e-05
-4.98714e-05
-3.3377e-05
-7.07235e-05
-3.22968e-05
-9.06391e-05
-2.4549e-05
-0.000102861
-1.07848e-05
-9.44399e-05
-4.75208e-05
-6.24586e-06
3.09097e-05
-1.34034e-05
6.00941e-05
-1.69217e-05
6.86074e-05
-1.66355e-05
6.71906e-05
-1.36258e-05
6.1541e-05
-9.05036e-06
5.42447e-05
-3.88358e-06
4.64011e-05
1.10121e-06
3.83659e-05
5.28464e-06
3.0121e-05
8.14499e-06
2.1466e-05
9.2217e-06
1.21001e-05
8.1091e-06
1.64203e-06
4.50567e-06
-1.03876e-05
-1.64747e-06
-2.45927e-05
-9.86103e-06
-4.16579e-05
-1.85906e-05
-6.1994e-05
-2.47066e-05
-8.45231e-05
-2.37444e-05
-0.000103823
-1.2911e-05
-0.000105273
-6.04317e-05
-9.55983e-06
4.04695e-05
-1.64238e-05
6.69581e-05
-1.58185e-05
6.80021e-05
-9.88717e-06
6.12593e-05
-1.12469e-06
5.27785e-05
8.70365e-06
4.44163e-05
1.84179e-05
3.66868e-05
2.72213e-05
2.95626e-05
3.45369e-05
2.28054e-05
3.98901e-05
1.61128e-05
4.28309e-05
9.15926e-06
4.28912e-05
1.5817e-06
3.95833e-05
-7.07971e-06
3.24629e-05
-1.74723e-05
2.13737e-05
-3.05687e-05
7.04983e-06
-4.76701e-05
-7.76957e-06
-6.97037e-05
-1.72107e-05
-9.43822e-05
-1.37602e-05
-0.000108724
-7.41919e-05
-1.3428e-05
5.38975e-05
-1.50772e-05
6.86073e-05
-5.09459e-06
5.80194e-05
9.81237e-06
4.63523e-05
2.58412e-05
3.67497e-05
4.12082e-05
2.90493e-05
5.50335e-05
2.28616e-05
6.6853e-05
1.7743e-05
7.63785e-05
1.32799e-05
8.33588e-05
9.13259e-06
8.74995e-05
5.01858e-06
8.84086e-05
6.72576e-07
8.55609e-05
-4.23199e-06
7.82504e-05
-1.01618e-05
6.56486e-05
-1.79669e-05
4.7176e-05
-2.91974e-05
2.37865e-05
-4.63142e-05
7.08571e-07
-7.13042e-05
-1.02162e-05
-9.7799e-05
-8.44082e-05
-9.40634e-06
6.33039e-05
8.82352e-06
5.03774e-05
3.51798e-05
3.16631e-05
6.00319e-05
2.15002e-05
8.14764e-05
1.53052e-05
9.94424e-05
1.10833e-05
0.000114189
8.1153e-06
0.000125999
5.93274e-06
0.000135078
4.20094e-06
0.00014151
2.70053e-06
0.000145244
1.28418e-06
0.000146074
-1.57508e-07
0.000143609
-1.7668e-06
0.000137147
-3.69993e-06
0.000125518
-6.33734e-06
0.000106871
-1.05509e-05
7.90586e-05
-1.85016e-05
4.22817e-05
-3.45273e-05
6.8945e-06
-6.24119e-05
-7.75137e-05
6.33039e-05
0.000113681
0.000145344
0.000166845
0.00018215
0.000193233
0.000201348
0.000207281
0.000211482
0.000214183
0.000215467
0.000215309
0.000213543
0.000209843
0.000203505
0.000192954
0.000174453
0.000139926
7.75137e-05
)
;

boundaryField
{
    movingWall
    {
        type            calculated;
        value           uniform 0;
    }
    fixedWalls
    {
        type            calculated;
        value           uniform 0;
    }
    frontAndBack
    {
        type            empty;
        value           nonuniform List<scalar> 0();
    }
}


// ************************************************************************* //
