/*--------------------------------*- C++ -*----------------------------------*\
  =========                 |
  \\      /  F ield         | OpenFOAM: The Open Source CFD Toolbox
   \\    /   O peration     | Website:  https://openfoam.org
    \\  /    A nd           | Version:  8
     \\/     M anipulation  |
\*---------------------------------------------------------------------------*/
FoamFile
{
    version     2.0;
    format      ascii;
    class       volVectorField;
    location    "1";
    object      U;
}
// * * * * * * * * * * * * * * * * * * * * * * * * * * * * * * * * * * * * * //

dimensions      [0 1 -1 0 0 0 0];

internalField   nonuniform List<vector> 
400
(
(0.00120471 -0.00120674 0)
(0.000402975 0.000673521 0)
(-0.00644939 0.00286736 0)
(-0.0179653 0.00434012 0)
(-0.0321696 0.00506875 0)
(-0.0472902 0.00518491 0)
(-0.0618222 0.00480545 0)
(-0.0744839 0.00400692 0)
(-0.0841618 0.00283705 0)
(-0.0898983 0.00134541 0)
(-0.0909513 -0.000383524 0)
(-0.0869153 -0.00220685 0)
(-0.0778733 -0.00391595 0)
(-0.0645313 -0.00525213 0)
(-0.0482821 -0.0059453 0)
(-0.0311455 -0.00577262 0)
(-0.0155449 -0.00462827 0)
(-0.00390929 -0.00259414 0)
(0.00189142 -8.67745e-05 0)
(0.00157692 0.00152419 0)
(-0.000622444 -0.000510714 0)
(-0.00896112 0.00883935 0)
(-0.0300506 0.018401 0)
(-0.0603751 0.024982 0)
(-0.0959655 0.0282348 0)
(-0.133148 0.0284654 0)
(-0.168512 0.02607 0)
(-0.199003 0.0213949 0)
(-0.221972 0.0147484 0)
(-0.23522 0.00649828 0)
(-0.237158 -0.00281631 0)
(-0.227047 -0.0124077 0)
(-0.205267 -0.0212318 0)
(-0.173538 -0.0280727 0)
(-0.134994 -0.0317231 0)
(-0.0940055 -0.0312494 0)
(-0.0556617 -0.0263012 0)
(-0.0249176 -0.0174105 0)
(-0.00569957 -0.00641461 0)
(0.000312351 0.00208239 0)
(-0.00307463 0.00649695 0)
(-0.0201016 0.0303272 0)
(-0.0555688 0.0520681 0)
(-0.102973 0.0668917 0)
(-0.156633 0.073985 0)
(-0.211665 0.0737761 0)
(-0.263441 0.067024 0)
(-0.307753 0.0545234 0)
(-0.340939 0.0371045 0)
(-0.359994 0.0158013 0)
(-0.362781 -0.00794438 0)
(-0.348332 -0.0321489 0)
(-0.317178 -0.0542964 0)
(-0.271612 -0.0715393 0)
(-0.215793 -0.0811086 0)
(-0.155541 -0.0809072 0)
(-0.0976941 -0.0702032 0)
(-0.049038 -0.0502717 0)
(-0.0155775 -0.0250283 0)
(-0.00167164 -0.00260537 0)
(-0.00527099 0.0195471 0)
(-0.0305633 0.0642252 0)
(-0.0798629 0.10141 0)
(-0.143229 0.125933 0)
(-0.213176 0.136997 0)
(-0.283849 0.135351 0)
(-0.349785 0.122233 0)
(-0.406027 0.0989922 0)
(-0.448253 0.0671182 0)
(-0.472893 0.0284868 0)
(-0.477354 -0.0143399 0)
(-0.460351 -0.057917 0)
(-0.42228 -0.0979363 0)
(-0.365571 -0.129541 0)
(-0.294893 -0.147976 0)
(-0.217057 -0.149558 0)
(-0.140393 -0.132824 0)
(-0.0736078 -0.099588 0)
(-0.0253361 -0.0557471 0)
(-0.00346058 -0.0125716 0)
(-0.00717171 0.037962 0)
(-0.0400145 0.109515 0)
(-0.102229 0.16501 0)
(-0.180452 0.200171 0)
(-0.265392 0.214938 0)
(-0.350341 0.21077 0)
(-0.429239 0.189571 0)
(-0.496651 0.153345 0)
(-0.547825 0.104288 0)
(-0.578759 0.0451497 0)
(-0.586385 -0.0203503 0)
(-0.568911 -0.0872383 0)
(-0.526255 -0.149269 0)
(-0.460527 -0.1993 0)
(-0.376445 -0.230152 0)
(-0.281496 -0.235956 0)
(-0.18548 -0.213856 0)
(-0.0993965 -0.165621 0)
(-0.0352272 -0.098752 0)
(-0.00510945 -0.0275206 0)
(-0.00883459 0.0611486 0)
(-0.0484888 0.165292 0)
(-0.122525 0.241915 0)
(-0.214394 0.288627 0)
(-0.313104 0.306856 0)
(-0.411224 0.29924 0)
(-0.50229 0.268603 0)
(-0.580604 0.217692 0)
(-0.641171 0.149395 0)
(-0.679639 0.0672531 0)
(-0.69242 -0.0239722 0)
(-0.677001 -0.117864 0)
(-0.632438 -0.206217 0)
(-0.560018 -0.279369 0)
(-0.463986 -0.327181 0)
(-0.35212 -0.340755 0)
(-0.235638 -0.3148 0)
(-0.128255 -0.250076 0)
(-0.0461981 -0.15517 0)
(-0.00687219 -0.0476191 0)
(-0.0102998 0.0885832 0)
(-0.0560305 0.230552 0)
(-0.140666 0.330942 0)
(-0.244766 0.390087 0)
(-0.355816 0.411633 0)
(-0.465822 0.399906 0)
(-0.568129 0.358928 0)
(-0.657004 0.292272 0)
(-0.727401 0.203448 0)
(-0.774745 0.096594 0)
(-0.79492 -0.0227489 0)
(-0.784518 -0.146977 0)
(-0.741369 -0.26606 0)
(-0.665378 -0.367681 0)
(-0.559642 -0.438174 0)
(-0.431605 -0.464533 0)
(-0.293598 -0.437542 0)
(-0.162342 -0.355461 0)
(-0.0594025 -0.22709 0)
(-0.00904665 -0.0736546 0)
(-0.011587 0.119771 0)
(-0.0626489 0.304205 0)
(-0.156515 0.430663 0)
(-0.271115 0.502967 0)
(-0.392603 0.527709 0)
(-0.512632 0.511443 0)
(-0.624609 0.459694 0)
(-0.723046 0.376943 0)
(-0.803121 0.267201 0)
(-0.860247 0.134921 0)
(-0.889896 -0.0139816 0)
(-0.887719 -0.171165 0)
(-0.850036 -0.325133 0)
(-0.774806 -0.460991 0)
(-0.66313 -0.561088 0)
(-0.521133 -0.607092 0)
(-0.361453 -0.583889 0)
(-0.20373 -0.484942 0)
(-0.0760684 -0.317639 0)
(-0.011961 -0.107091 0)
(-0.0127166 0.154221 0)
(-0.0683719 0.385085 0)
(-0.169956 0.539394 0)
(-0.292904 0.625206 0)
(-0.422211 0.652844 0)
(-0.549425 0.631694 0)
(-0.668345 0.569131 0)
(-0.774092 0.470636 0)
(-0.862441 0.340587 0)
(-0.929157 0.183404 0)
(-0.9696 0.00485521 0)
(-0.978643 -0.18663 0)
(-0.951019 -0.378745 0)
(-0.882276 -0.554455 0)
(-0.770569 -0.691992 0)
(-0.6193 -0.766571 0)
(-0.439897 -0.754775 0)
(-0.254065 -0.641892 0)
(-0.0974559 -0.430883 0)
(-0.0159973 -0.150096 0)
(-0.0137564 0.191488 0)
(-0.0733899 0.472007 0)
(-0.181114 0.655161 0)
(-0.309769 0.754089 0)
(-0.443317 0.783799 0)
(-0.573521 0.75722 0)
(-0.694989 0.683987 0)
(-0.803925 0.570713 0)
(-0.897198 0.422016 0)
(-0.97145 0.241929 0)
(-1.02245 0.0354721 0)
(-1.04476 -0.189658 0)
(-1.03178 -0.421332 0)
(-0.976459 -0.641324 0)
(-0.873148 -0.824245 0)
(-0.720801 -0.938214 0)
(-0.527245 -0.948964 0)
(-0.314127 -0.82898 0)
(-0.124844 -0.571521 0)
(-0.0216432 -0.205589 0)
(-0.0149018 0.231317 0)
(-0.0782946 0.563949 0)
(-0.190712 0.775745 0)
(-0.321907 0.886106 0)
(-0.454907 0.916016 0)
(-0.582147 0.882846 0)
(-0.699619 0.798975 0)
(-0.805193 0.672314 0)
(-0.897446 0.507638 0)
(-0.974557 0.308274 0)
(-1.03345 0.0779117 0)
(-1.06916 -0.177405 0)
(-1.07444 -0.447007 0)
(-1.03999 -0.71303 0)
(-0.955891 -0.947892 0)
(-0.814923 -1.11302 0)
(-0.618105 -1.16128 0)
(-0.383144 -1.04667 0)
(-0.159484 -0.744284 0)
(-0.0295723 -0.277332 0)
(-0.0166121 0.273985 0)
(-0.0844366 0.660429 0)
(-0.200523 0.898787 0)
(-0.330474 1.01678 0)
(-0.456581 1.04328 0)
(-0.57272 1.00124 0)
(-0.677067 0.906293 0)
(-0.769882 0.767819 0)
(-0.852126 0.590705 0)
(-0.92424 0.377338 0)
(-0.985167 0.129602 0)
(-1.03145 -0.148968 0)
(-1.0564 -0.450591 0)
(-1.04949 -0.759865 0)
(-0.996901 -1.04958 0)
(-0.88408 -1.27657 0)
(-0.70169 -1.38045 0)
(-0.457653 -1.29101 0)
(-0.202415 -0.952862 0)
(-0.040756 -0.370078 0)
(-0.0198506 0.320944 0)
(-0.0944427 0.762072 0)
(-0.213812 1.02186 0)
(-0.337733 1.14037 0)
(-0.448409 1.15728 0)
(-0.542547 1.10247 0)
(-0.621683 0.995264 0)
(-0.689322 0.846544 0)
(-0.749468 0.661225 0)
(-0.805462 0.440627 0)
(-0.859059 0.184567 0)
(-0.909435 -0.106535 0)
(-0.951947 -0.429058 0)
(-0.976697 -0.772413 0)
(-0.967525 -1.11338 0)
(-0.902765 -1.40854 0)
(-0.759872 -1.58695 0)
(-0.529723 -1.5505 0)
(-0.253961 -1.19795 0)
(-0.0565831 -0.489767 0)
(-0.0265028 0.375968 0)
(-0.112898 0.871255 0)
(-0.235463 1.14211 0)
(-0.346272 1.24903 0)
(-0.429429 1.24681 0)
(-0.486994 1.17349 0)
(-0.525542 1.05214 0)
(-0.552759 0.894805 0)
(-0.576188 0.706165 0)
(-0.602406 0.486375 0)
(-0.636413 0.233193 0)
(-0.680842 -0.0562079 0)
(-0.734606 -0.383098 0)
(-0.790757 -0.743707 0)
(-0.833781 -1.12293 0)
(-0.837352 -1.48361 0)
(-0.765199 -1.75144 0)
(-0.584273 -1.80217 0)
(-0.312382 -1.47374 0)
(-0.078837 -0.643451 0)
(-0.0400025 0.447027 0)
(-0.146898 0.992348 0)
(-0.270632 1.2548 0)
(-0.355513 1.33098 0)
(-0.392779 1.2963 0)
(-0.394132 1.19746 0)
(-0.373287 1.06018 0)
(-0.342867 0.896606 0)
(-0.313996 0.710518 0)
(-0.296209 0.500717 0)
(-0.297492 0.263135 0)
(-0.324023 -0.0078455 0)
(-0.379142 -0.318149 0)
(-0.461072 -0.67168 0)
(-0.558932 -1.06489 0)
(-0.64696 -1.47461 0)
(-0.67899 -1.83535 0)
(-0.594948 -2.00791 0)
(-0.370464 -1.76227 0)
(-0.108893 -0.838326 0)
(-0.0657081 0.549422 0)
(-0.204728 1.13002 0)
(-0.318326 1.34888 0)
(-0.351021 1.36645 0)
(-0.313248 1.28354 0)
(-0.232415 1.1531 0)
(-0.130994 1.00044 0)
(-0.0262742 0.835489 0)
(0.0680664 0.659824 0)
(0.140831 0.470517 0)
(0.182336 0.262046 0)
(0.183884 0.0270069 0)
(0.138085 -0.243767 0)
(0.0404528 -0.560763 0)
(-0.106568 -0.933021 0)
(-0.28524 -1.35792 0)
(-0.449389 -1.7945 0)
(-0.51769 -2.1124 0)
(-0.407703 -2.02648 0)
(-0.144192 -1.08056 0)
(-0.108529 0.712053 0)
(-0.286031 1.2806 0)
(-0.348907 1.3934 0)
(-0.276061 1.31786 0)
(-0.119721 1.17495 0)
(0.0729678 1.01413 0)
(0.272876 0.853803 0)
(0.461211 0.698027 0)
(0.624859 0.54445 0)
(0.753733 0.388017 0)
(0.838881 0.222284 0)
(0.871277 0.0394595 0)
(0.841338 -0.170466 0)
(0.739232 -0.421182 0)
(0.557254 -0.731195 0)
(0.297745 -1.11984 0)
(-0.00902939 -1.58534 0)
(-0.281493 -2.04278 0)
(-0.375987 -2.2001 0)
(-0.167752 -1.37345 0)
(-0.155398 0.978319 0)
(-0.340024 1.40025 0)
(-0.237044 1.30625 0)
(0.0335049 1.11459 0)
(0.35505 0.923615 0)
(0.674786 0.754185 0)
(0.969737 0.608548 0)
(1.22801 0.481803 0)
(1.44279 0.367022 0)
(1.60915 0.257434 0)
(1.72196 0.146684 0)
(1.77458 0.0282103 0)
(1.75808 -0.106066 0)
(1.66024 -0.268149 0)
(1.4652 -0.478131 0)
(1.1567 -0.768761 0)
(0.731089 -1.18047 0)
(0.228124 -1.71305 0)
(-0.173244 -2.15906 0)
(-0.118891 -1.67465 0)
(-0.0475154 1.2693 0)
(-0.0719796 1.31668 0)
(0.411474 0.968829 0)
(0.958185 0.70945 0)
(1.42945 0.529267 0)
(1.82303 0.39836 0)
(2.14909 0.301091 0)
(2.41397 0.226093 0)
(2.62244 0.164551 0)
(2.77753 0.110085 0)
(2.87973 0.057985 0)
(2.92657 0.00427199 0)
(2.91235 -0.055294 0)
(2.82659 -0.127342 0)
(2.65145 -0.224356 0)
(2.35804 -0.373234 0)
(1.9015 -0.630294 0)
(1.22433 -1.07904 0)
(0.452733 -1.68826 0)
(0.217448 -1.70149 0)
(1.43808 0.707108 0)
(1.83548 0.626496 0)
(2.56304 0.398223 0)
(3.13706 0.251629 0)
(3.51141 0.164229 0)
(3.76857 0.10941 0)
(3.9561 0.0739876 0)
(4.09445 0.0502269 0)
(4.19457 0.0331135 0)
(4.26292 0.0195172 0)
(4.30258 0.00748938 0)
(4.31405 -0.00430771 0)
(4.29549 -0.016953 0)
(4.24212 -0.0321689 0)
(4.14415 -0.0531716 0)
(3.98043 -0.0879705 0)
(3.70174 -0.158337 0)
(3.17374 -0.316118 0)
(2.29908 -0.622658 0)
(1.66794 -0.779731 0)
)
;

boundaryField
{
    movingWall
    {
        type            fixedValue;
        value           uniform (5.0732 0 0);
    }
    fixedWalls
    {
        type            noSlip;
    }
    frontAndBack
    {
        type            empty;
    }
}


// ************************************************************************* //
