/*--------------------------------*- C++ -*----------------------------------*\
| =========                 |                                                 |
| \\      /  F ield         | OpenFOAM: The Open Source CFD Toolbox           |
|  \\    /   O peration     | Version:  2212                                  |
|   \\  /    A nd           | Website:  www.openfoam.com                      |
|    \\/     M anipulation  |                                                 |
\*---------------------------------------------------------------------------*/
FoamFile
{
    version     2.0;
    format      ascii;
    arch        "LSB;label=32;scalar=64";
    class       volVectorField;
    location    "0.5";
    object      U;
}
// * * * * * * * * * * * * * * * * * * * * * * * * * * * * * * * * * * * * * //

dimensions      [0 1 -1 0 0 0 0];

internalField   nonuniform List<vector> 
44
(
(0.00743212 0 0)
(0.00781624 0 0)
(0.00801035 0 0)
(0.00801036 0 0)
(0.00781628 0 0)
(0.00743218 0 0)
(0.00686628 0 0)
(0.0224787 0 0)
(0.0236393 0 0)
(0.0242257 0 0)
(0.0242258 0 0)
(0.0236394 0 0)
(0.0224789 0 0)
(0.0207688 0 0)
(0.0380766 0 0)
(0.0400384 0 0)
(0.0410294 0 0)
(0.0410295 0 0)
(0.0400386 0 0)
(0.038077 0 0)
(0.0351854 0 0)
(0.0546076 0 0)
(0.0574115 0 0)
(0.0588273 0 0)
(0.0588274 0 0)
(0.0574118 0 0)
(0.0546082 0 0)
(0.0504729 0 0)
(0.0724745 0 0)
(0.076177 0 0)
(0.0780454 0 0)
(0.0780455 0 0)
(0.0761773 0 0)
(0.0724751 0 0)
(0.0670099 0 0)
(0.0921099 0 0)
(0.0967819 0 0)
(0.0991377 0 0)
(0.0991374 0 0)
(0.0967824 0 0)
(0.0921104 0 0)
(0.0852052 0 0)
(0.11971 0 0)
(0.113985 0 0)
)
;

boundaryField
{
    movingWall
    {
        type            fixedValue;
        value           nonuniform List<vector> 0();
    }
    fixedWalls
    {
        type            noSlip;
    }
    frontAndBack
    {
        type            empty;
    }
    procBoundary1to0
    {
        type            processor;
        value           nonuniform List<vector> 6((0.00686635 0 0) (0.0207689 0 0) (0.0351856 0 0) (0.0504734 0 0) (0.0670108 0 0) (0.0852076 0 0));
    }
    procBoundary1to2
    {
        type            processor;
        value           nonuniform List<vector> 8((0.00613137 0 0) (0.0185473 0 0) (0.0314272 0 0) (0.0450944 0 0) (0.0598938 0 0) (0.0762017 0 0) (0.105512 0 0) (0.105512 0 0));
    }
    procBoundary1to4
    {
        type            processor;
        value           nonuniform List<vector> 7((0.113989 0 0) (0.119714 0 0) (0.122597 0 0) (0.122595 0 0) (0.122595 0 0) (0.145493 0 0) (0.138624 0 0));
    }
}


// ************************************************************************* //
