/*--------------------------------*- C++ -*----------------------------------*\
  =========                 |
  \\      /  F ield         | OpenFOAM: The Open Source CFD Toolbox
   \\    /   O peration     | Website:  https://openfoam.org
    \\  /    A nd           | Version:  9
     \\/     M anipulation  |
\*---------------------------------------------------------------------------*/
FoamFile
{
    format      ascii;
    class       surfaceScalarField;
    location    "0.075";
    object      phi;
}
// * * * * * * * * * * * * * * * * * * * * * * * * * * * * * * * * * * * * * //

dimensions      [0 3 -1 0 0 0 0];

internalField   nonuniform List<scalar> 
66
(
-4.12312e-06
-1.60614e-08
-3.89411e-06
-2.2901e-07
-3.46394e-06
-4.30172e-07
-6.03633e-07
-1.02144e-05
-8.86115e-08
-9.66349e-06
-7.79927e-07
-8.66666e-06
-1.42701e-06
-1.97527e-06
-1.52779e-05
-2.05213e-07
-1.44927e-05
-1.56515e-06
-1.30778e-05
-2.84192e-06
-3.92467e-06
-1.98787e-05
-3.30877e-07
-1.8923e-05
-2.52086e-06
-1.71736e-05
-4.59133e-06
-6.36312e-06
-2.42355e-05
-4.08667e-07
-2.31821e-05
-3.57427e-06
-2.11739e-05
-6.59955e-06
-9.22466e-06
-2.84761e-05
-3.60922e-07
-2.74174e-05
-4.63293e-06
-2.52457e-05
-8.7713e-06
-1.24336e-05
-3.26279e-05
-1.02201e-07
-3.16752e-05
-5.5856e-06
-2.94585e-05
-1.0988e-05
-1.58854e-05
-3.65857e-05
4.36768e-07
-3.58473e-05
-6.324e-06
-3.37289e-05
-1.31064e-05
-1.94254e-05
-4.01009e-05
1.28828e-06
-3.96649e-05
-6.76003e-06
-3.77953e-05
-1.4976e-05
-2.28601e-05
-4.27965e-05
-4.27412e-05
-4.12657e-05
)
;

boundaryField
{
    movingWall
    {
        type            calculated;
        value           nonuniform List<scalar> 0();
    }
    fixedWalls
    {
        type            calculated;
        value           uniform 0;
    }
    frontAndBack
    {
        type            empty;
        value           nonuniform List<scalar> 0();
    }
    procBoundary5to2
    {
        type            processor;
        value           nonuniform List<scalar> 8(4.13918e-06 1.0287e-05 1.53945e-05 2.00044e-05 2.43133e-05 2.84283e-05 3.23692e-05 3.60467e-05);
    }
    procBoundary5to3
    {
        type            processor;
        value           nonuniform List<scalar> 2(3.92494e-05 4.16434e-05);
    }
    procBoundary5to6
    {
        type            processor;
        value           nonuniform List<scalar> 4(2.44138e-06 -6.81531e-06 -1.64515e-05 -2.5971e-05);
    }
    procBoundary5to7
    {
        type            processor;
        value           nonuniform List<scalar> 6(-2.8603e-06 -7.29502e-06 -1.11284e-05 -1.47352e-05 -1.83123e-05 -2.20367e-05);
    }
    procBoundary5to8
    {
        type            processor;
        value           nonuniform List<scalar> 4(-2.60067e-05 -3.01888e-05 -3.43606e-05 -3.81548e-05);
    }
}


// ************************************************************************* //
