/*--------------------------------*- C++ -*----------------------------------*\
  =========                 |
  \\      /  F ield         | OpenFOAM: The Open Source CFD Toolbox
   \\    /   O peration     | Website:  https://openfoam.org
    \\  /    A nd           | Version:  9
     \\/     M anipulation  |
\*---------------------------------------------------------------------------*/
FoamFile
{
    format      ascii;
    class       volScalarField;
    location    "0.03";
    object      p;
}
// * * * * * * * * * * * * * * * * * * * * * * * * * * * * * * * * * * * * * //

dimensions      [0 2 -2 0 0 0 0];

internalField   nonuniform List<scalar> 
40
(
-0.134653
-0.183874
-0.244301
-0.305063
-0.344142
-0.147912
-0.215223
-0.284073
-0.356484
-0.414593
-0.455938
-0.493836
-0.0748811
-0.17584
-0.280203
-0.391211
-0.483009
-0.553001
-0.594187
0.0669964
-0.118213
-0.308181
-0.488486
-0.628836
-0.716747
-0.714777
0.104866
-0.257499
-0.525811
-0.698072
-0.805915
-0.873481
-0.78053
-0.120147
-0.530872
-0.706304
-0.818829
-0.899285
-0.970542
-0.766585
)
;

boundaryField
{
    movingWall
    {
        type            zeroGradient;
    }
    fixedWalls
    {
        type            zeroGradient;
    }
    frontAndBack
    {
        type            empty;
    }
    procBoundary4to1
    {
        type            processor;
        value           nonuniform List<scalar> 6(-0.0577901 -0.0339559 0.0262974 0.187733 0.401004 0.353867);
    }
    procBoundary4to3
    {
        type            processor;
        value           nonuniform List<scalar> 8(-0.115851 -0.172911 -0.216926 -0.261776 -0.296477 -0.397935 -0.397935 -0.423986);
    }
    procBoundary4to6
    {
        type            processor;
        value           nonuniform List<scalar> 5(-0.526142 -0.637807 -0.749693 -0.80702 -0.78965);
    }
}


// ************************************************************************* //
