/*--------------------------------*- C++ -*----------------------------------*\
  =========                 |
  \\      /  F ield         | OpenFOAM: The Open Source CFD Toolbox
   \\    /   O peration     | Website:  https://openfoam.org
    \\  /    A nd           | Version:  8
     \\/     M anipulation  |
\*---------------------------------------------------------------------------*/
FoamFile
{
    version     2.0;
    format      ascii;
    class       volScalarField;
    location    "80";
    object      k;
}
// * * * * * * * * * * * * * * * * * * * * * * * * * * * * * * * * * * * * * //

dimensions      [0 2 -2 0 0 0 0];

internalField   nonuniform List<scalar> 
20
(
0.0588961
0.0631621
0.0320026
0.0304181
0.0285572
0.0265387
0.0267172
0.0296656
0.0344398
0.034284
0.0342764
0.034431
0.0296579
0.0267106
0.0265327
0.0285514
0.0304137
0.0319964
0.0631475
0.058898
)
;

boundaryField
{
    bottomWall
    {
        type            kqRWallFunction;
        value           uniform 0.0588961;
    }
    topWall
    {
        type            kqRWallFunction;
        value           uniform 0.058898;
    }
    sides1_half0
    {
        type            empty;
    }
    sides1_half1
    {
        type            empty;
    }
    sides2_half0
    {
        type            empty;
    }
    sides2_half1
    {
        type            empty;
    }
    inout1_half0
    {
        type            empty;
    }
    inout1_half1
    {
        type            empty;
    }
    inout2_half0
    {
        type            empty;
    }
    inout2_half1
    {
        type            empty;
    }
}


// ************************************************************************* //
