/*--------------------------------*- C++ -*----------------------------------*\
  =========                 |
  \\      /  F ield         | OpenFOAM: The Open Source CFD Toolbox
   \\    /   O peration     | Website:  https://openfoam.org
    \\  /    A nd           | Version:  8
     \\/     M anipulation  |
\*---------------------------------------------------------------------------*/
FoamFile
{
    version     2.0;
    format      ascii;
    class       volScalarField;
    location    "80";
    object      nut;
}
// * * * * * * * * * * * * * * * * * * * * * * * * * * * * * * * * * * * * * //

dimensions      [0 2 -1 0 0 0 0];

internalField   nonuniform List<scalar> 
20
(
0.00121748
0.00286832
0.0029795
0.00529158
0.00777316
0.0109138
0.0152461
0.0198713
0.0235445
0.0251113
0.0251099
0.0235422
0.0198687
0.0152435
0.0109117
0.00777156
0.0052907
0.00297885
0.0028674
0.0012174
)
;

boundaryField
{
    bottomWall
    {
        type            nutkWallFunction;
        Cmu             0.09;
        kappa           0.41;
        E               9.8;
        value           uniform 0.00015165;
    }
    topWall
    {
        type            nutkWallFunction;
        Cmu             0.09;
        kappa           0.41;
        E               9.8;
        value           uniform 0.000151639;
    }
    sides1_half0
    {
        type            empty;
    }
    sides1_half1
    {
        type            empty;
    }
    sides2_half0
    {
        type            empty;
    }
    sides2_half1
    {
        type            empty;
    }
    inout1_half0
    {
        type            empty;
    }
    inout1_half1
    {
        type            empty;
    }
    inout2_half0
    {
        type            empty;
    }
    inout2_half1
    {
        type            empty;
    }
}


// ************************************************************************* //
