/*--------------------------------*- C++ -*----------------------------------*\
  =========                 |
  \\      /  F ield         | OpenFOAM: The Open Source CFD Toolbox
   \\    /   O peration     | Website:  https://openfoam.org
    \\  /    A nd           | Version:  9
     \\/     M anipulation  |
\*---------------------------------------------------------------------------*/
FoamFile
{
    format      ascii;
    class       volScalarField;
    location    "0.09";
    object      p;
}
// * * * * * * * * * * * * * * * * * * * * * * * * * * * * * * * * * * * * * //

dimensions      [0 2 -2 0 0 0 0];

internalField   nonuniform List<scalar> 
40
(
-0.249224
-0.248073
-0.243367
-0.239814
-0.239583
-0.239107
-0.242118
-0.243942
-0.24799
-0.260007
-0.223765
-0.229387
-0.237677
-0.197582
-0.207385
-0.227326
-0.153628
-0.170612
-0.211296
-0.0840006
-0.115387
-0.195894
0.0199633
-0.0334994
-0.150673
0.162754
0.0751203
-0.0641621
0.346631
0.214803
0.0806714
0.597552
0.464483
0.37197
1.15495
0.993236
0.713839
1.77835
1.31799
0.598553
)
;

boundaryField
{
    movingWall
    {
        type            zeroGradient;
    }
    fixedWalls
    {
        type            zeroGradient;
    }
    frontAndBack
    {
        type            empty;
    }
    procBoundary1to0
    {
        type            processor;
        value           nonuniform List<scalar> 5(-0.258537 -0.255911 -0.251785 -0.249663 -0.255952);
    }
    procBoundary1to3
    {
        type            processor;
        value           nonuniform List<scalar> 8(-0.273289 -0.265232 -0.291873 -0.293686 -0.265232 -0.280815 -0.296743 -0.307598);
    }
    procBoundary1to4
    {
        type            processor;
        value           nonuniform List<scalar> 6(-0.298483 -0.254094 -0.0954202 0.172879 0.252626 -0.163822);
    }
}


// ************************************************************************* //
