/*--------------------------------*- C++ -*----------------------------------*\
  =========                 |
  \\      /  F ield         | OpenFOAM: The Open Source CFD Toolbox
   \\    /   O peration     | Website:  https://openfoam.org
    \\  /    A nd           | Version:  9
     \\/     M anipulation  |
\*---------------------------------------------------------------------------*/
FoamFile
{
    format      ascii;
    class       volVectorField;
    location    "0.06";
    object      U;
}
// * * * * * * * * * * * * * * * * * * * * * * * * * * * * * * * * * * * * * //

dimensions      [0 1 -1 0 0 0 0];

internalField   nonuniform List<vector> 
40
(
(-0.4398 -0.326901 0)
(-0.343674 -0.35918 0)
(-0.517983 -0.418714 0)
(-0.411124 -0.46741 0)
(-0.288932 -0.466055 0)
(-0.165387 -0.403943 0)
(-0.0625946 -0.277207 0)
(-0.00969787 -0.0978386 0)
(-0.602027 -0.51726 0)
(-0.487167 -0.588468 0)
(-0.349665 -0.597948 0)
(-0.204617 -0.527891 0)
(-0.0794938 -0.36883 0)
(-0.0129954 -0.133001 0)
(-0.687366 -0.61895 0)
(-0.569001 -0.720041 0)
(-0.41898 -0.748085 0)
(-0.252211 -0.675199 0)
(-0.10138 -0.481971 0)
(-0.0176405 -0.178106 0)
(-0.764993 -0.71829 0)
(-0.650505 -0.857328 0)
(-0.49423 -0.914217 0)
(-0.308157 -0.847248 0)
(-0.12941 -0.620837 0)
(-0.0242469 -0.236304 0)
(-0.819297 -0.806828 0)
(-0.719903 -0.991303 0)
(-0.568635 -1.08974 0)
(-0.370947 -1.04239 0)
(-0.164924 -0.78902 0)
(-0.0337291 -0.311634 0)
(-0.826732 -0.872481 0)
(-0.757746 -1.10807 0)
(-0.62947 -1.26154 0)
(-0.435684 -1.25369 0)
(-0.20894 -0.988243 0)
(-0.0475089 -0.409452 0)
(-0.755659 -0.901385 0)
(-0.735096 -1.18765 0)
)
;

boundaryField
{
    movingWall
    {
        type            fixedValue;
        value           nonuniform List<vector> 0();
    }
    fixedWalls
    {
        type            noSlip;
    }
    frontAndBack
    {
        type            empty;
    }
    procBoundary8to5
    {
        type            processor;
        value           nonuniform List<vector> 4((-0.50566 -0.259522 0) (-0.586918 -0.326837 0) (-0.671018 -0.395666 0) (-0.75208 -0.462381 0));
    }
    procBoundary8to6
    {
        type            processor;
        value           nonuniform List<vector> 4((-0.819702 -0.522748 0) (-0.856583 -0.57053 0) (-0.838007 -0.597652 0) (-0.732503 -0.596304 0));
    }
    procBoundary8to7
    {
        type            processor;
        value           nonuniform List<vector> 7((-0.360877 -0.238718 0) (-0.27862 -0.259206 0) (-0.232037 -0.345209 0) (-0.232037 -0.345209 0) (-0.130645 -0.295118 0) (-0.0485438 -0.200214 0) (-0.00725643 -0.069937 0));
    }
    procBoundary8to9
    {
        type            processor;
        value           nonuniform List<vector> 7((-0.642767 -1.37941 0) (-0.481623 -1.43449 0) (-0.255055 -1.19022 0) (-0.0656238 -0.525465 0) (-0.561335 -0.863332 0) (-0.642767 -1.37941 0) (-0.605491 -1.18375 0));
    }
}


// ************************************************************************* //
