/*--------------------------------*- C++ -*----------------------------------*\
  =========                 |
  \\      /  F ield         | OpenFOAM: The Open Source CFD Toolbox
   \\    /   O peration     | Website:  https://openfoam.org
    \\  /    A nd           | Version:  8
     \\/     M anipulation  |
\*---------------------------------------------------------------------------*/
FoamFile
{
    version     2.0;
    format      ascii;
    class       volScalarField;
    location    "1";
    object      p;
}
// * * * * * * * * * * * * * * * * * * * * * * * * * * * * * * * * * * * * * //

dimensions      [0 2 -2 0 0 0 0];

internalField   nonuniform List<scalar> 
400
(
-0.0991593
-0.198127
-0.251262
-0.276633
-0.280262
-0.268045
-0.243103
-0.206025
-0.159455
-0.106383
-0.0490435
0.0103806
0.069123
0.124041
0.172262
0.211739
0.241475
0.261458
0.272469
0.27613
-0.198514
-0.238981
-0.268502
-0.283647
-0.282629
-0.267772
-0.241429
-0.204292
-0.158546
-0.106549
-0.0501184
0.00872347
0.0671958
0.122024
0.170141
0.209326
0.238509
0.257618
0.267015
0.266663
-0.2502
-0.268405
-0.280206
-0.284605
-0.277274
-0.259924
-0.233853
-0.198757
-0.15618
-0.107902
-0.0550698
0.000855062
0.0572882
0.110726
0.157623
0.195329
0.222663
0.239767
0.247208
0.245456
-0.2732
-0.280697
-0.2807
-0.276503
-0.263877
-0.244748
-0.22
-0.188503
-0.151175
-0.10918
-0.0627528
-0.0124148
0.0397463
0.0900943
0.134529
0.169842
0.194597
0.209062
0.214149
0.210896
-0.278022
-0.279053
-0.271604
-0.261011
-0.244051
-0.223502
-0.200416
-0.173096
-0.141974
-0.107892
-0.0702987
-0.028538
0.0162211
0.0605957
0.100207
0.131457
0.152679
0.164051
0.166785
0.162314
-0.270333
-0.267626
-0.255717
-0.241036
-0.221099
-0.199723
-0.178623
-0.155734
-0.130983
-0.105416
-0.0782806
-0.0478001
-0.0137354
0.0214754
0.0537506
0.0793983
0.0964757
0.104772
0.105743
0.100998
-0.255758
-0.251821
-0.238252
-0.222207
-0.201238
-0.17995
-0.161158
-0.142746
-0.123651
-0.105571
-0.0886953
-0.0707888
-0.049937
-0.0267555
-0.0040915
0.0148302
0.0277953
0.0337884
0.034206
0.0304864
-0.239626
-0.236784
-0.224492
-0.210281
-0.190973
-0.17125
-0.1553
-0.141911
-0.127859
-0.115179
-0.106334
-0.100042
-0.0930243
-0.0833349
-0.0714805
-0.0594297
-0.049569
-0.0442345
-0.0427682
-0.0445193
-0.224369
-0.224882
-0.216876
-0.208199
-0.194429
-0.179089
-0.167139
-0.160696
-0.152918
-0.144295
-0.140159
-0.142091
-0.146697
-0.149399
-0.1475
-0.140867
-0.131835
-0.124627
-0.120448
-0.120436
-0.208213
-0.213772
-0.212734
-0.213411
-0.210301
-0.204518
-0.198643
-0.202444
-0.205327
-0.202729
-0.201459
-0.207364
-0.218955
-0.230079
-0.234772
-0.230214
-0.218352
-0.20577
-0.197061
-0.196642
-0.185022
-0.196166
-0.204624
-0.218391
-0.231708
-0.244077
-0.248046
-0.265407
-0.285275
-0.294935
-0.298861
-0.30658
-0.320262
-0.334206
-0.340291
-0.333055
-0.313599
-0.290922
-0.274588
-0.27438
-0.14563
-0.162214
-0.1843
-0.21611
-0.250923
-0.293027
-0.314368
-0.347549
-0.388482
-0.417504
-0.432654
-0.443968
-0.45721
-0.469077
-0.471429
-0.457005
-0.425223
-0.386432
-0.355914
-0.351884
-0.0812027
-0.104239
-0.148015
-0.207301
-0.266808
-0.347315
-0.39812
-0.450556
-0.511791
-0.562457
-0.593894
-0.612494
-0.625048
-0.631536
-0.626606
-0.602975
-0.556552
-0.495472
-0.438891
-0.418516
0.0130329
-0.0208889
-0.0964834
-0.197893
-0.285942
-0.398538
-0.487225
-0.567265
-0.64941
-0.72117
-0.771513
-0.799235
-0.807207
-0.801187
-0.784118
-0.751709
-0.693315
-0.607539
-0.509987
-0.452639
0.138471
0.0836237
-0.0259063
-0.174918
-0.303402
-0.42589
-0.541546
-0.658013
-0.774258
-0.8778
-0.957294
-0.999682
-0.983517
-0.941272
-0.896447
-0.852087
-0.788187
-0.684736
-0.539512
-0.425613
0.302279
0.209235
0.0779685
-0.0842297
-0.265841
-0.397319
-0.527588
-0.689767
-0.875257
-1.05203
-1.18694
-1.24014
-1.18273
-1.0515
-0.917742
-0.826254
-0.753549
-0.651748
-0.480265
-0.309927
0.525129
0.382666
0.23922
0.116695
-0.0926222
-0.292191
-0.515393
-0.782806
-1.07158
-1.3335
-1.51606
-1.57673
-1.49636
-1.2637
-0.954711
-0.668794
-0.483118
-0.390095
-0.265268
-0.0887825
0.837283
0.690073
0.543456
0.366755
0.0752419
-0.269873
-0.66522
-1.06738
-1.41596
-1.67862
-1.84459
-1.9084
-1.85951
-1.66478
-1.27399
-0.695306
-0.132068
0.200147
0.247597
0.314987
1.45432
1.2553
0.951582
0.48192
-0.106478
-0.645399
-1.08627
-1.44566
-1.73056
-1.94168
-2.08085
-2.14792
-2.13341
-2.00904
-1.71964
-1.17907
-0.310771
0.604527
1.10259
1.1992
2.0996
1.62277
0.830137
-0.00149519
-0.584899
-1.00261
-1.34163
-1.62748
-1.86042
-2.03828
-2.16093
-2.22708
-2.22822
-2.14395
-1.94124
-1.57503
-0.944436
0.126425
1.46146
2.18917
)
;

boundaryField
{
    movingWall
    {
        type            zeroGradient;
    }
    fixedWalls
    {
        type            zeroGradient;
    }
    frontAndBack
    {
        type            empty;
    }
}


// ************************************************************************* //
