/*--------------------------------*- C++ -*----------------------------------*\
  =========                 |
  \\      /  F ield         | OpenFOAM: The Open Source CFD Toolbox
   \\    /   O peration     | Website:  https://openfoam.org
    \\  /    A nd           | Version:  8
     \\/     M anipulation  |
\*---------------------------------------------------------------------------*/
FoamFile
{
    version     2.0;
    format      ascii;
    class       surfaceScalarField;
    location    "1";
    object      phi;
}
// * * * * * * * * * * * * * * * * * * * * * * * * * * * * * * * * * * * * * //

dimensions      [0 3 -1 0 0 0 0];

internalField   nonuniform List<scalar> 
760
(
6.39662e-08
-6.41721e-08
-1.33881e-07
1.97849e-07
-6.01308e-07
4.67431e-07
-1.24956e-06
6.48248e-07
-1.98587e-06
7.36312e-07
-2.7292e-06
7.4333e-07
-3.41066e-06
6.81456e-07
-3.97087e-06
5.60212e-07
-4.35816e-06
3.87292e-07
-4.52978e-06
1.71624e-07
-4.45652e-06
-7.32658e-08
-4.12966e-06
-3.26854e-07
-3.56836e-06
-5.61302e-07
-2.82477e-06
-7.43586e-07
-1.98433e-06
-8.40444e-07
-1.15873e-06
-8.25598e-07
-4.70544e-07
-6.88188e-07
-2.98328e-08
-4.40711e-07
1.02179e-07
-1.3201e-07
1.02181e-07
-1.96247e-07
1.32065e-07
-9.65957e-07
9.67567e-07
-2.25632e-06
1.75781e-06
-3.90531e-06
2.29723e-06
-5.72691e-06
2.55791e-06
-7.54241e-06
2.55884e-06
-9.19037e-06
2.32942e-06
-1.05287e-05
1.89851e-06
-1.14361e-05
1.29474e-06
-1.18178e-05
5.53267e-07
-1.16148e-05
-2.76187e-07
-1.08176e-05
-1.12404e-06
-9.47817e-06
-1.90077e-06
-7.71752e-06
-2.50424e-06
-5.72349e-06
-2.83448e-06
-3.73376e-06
-2.81533e-06
-2.00228e-06
-2.41968e-06
-7.50048e-07
-1.69294e-06
-1.03257e-07
-7.78806e-07
-1.07377e-09
-5.06042e-07
6.38112e-07
-1.89199e-06
2.35351e-06
-3.96642e-06
3.83224e-06
-6.48898e-06
4.81979e-06
-9.20691e-06
5.27584e-06
-1.18781e-05
5.23006e-06
-1.42813e-05
4.73261e-06
-1.62202e-05
3.83742e-06
-1.75282e-05
2.60267e-06
-1.80763e-05
1.10136e-06
-1.77863e-05
-5.66108e-07
-1.66468e-05
-2.26362e-06
-1.47275e-05
-3.81999e-06
-1.21897e-05
-5.04207e-06
-9.28282e-06
-5.74136e-06
-6.32504e-06
-5.77311e-06
-3.66207e-06
-5.08265e-06
-1.60724e-06
-3.74777e-06
-3.71274e-07
-2.01477e-06
-3.72346e-07
-7.89276e-07
1.4274e-06
-2.76791e-06
4.33215e-06
-5.58645e-06
6.65078e-06
-8.91077e-06
8.14411e-06
-1.24256e-05
8.79064e-06
-1.58411e-05
8.64556e-06
-1.88959e-05
7.78745e-06
-2.13588e-05
6.30028e-06
-2.30324e-05
4.27628e-06
-2.37623e-05
1.83128e-06
-2.34509e-05
-8.77489e-07
-2.20752e-05
-3.6393e-06
-1.97052e-05
-6.19001e-06
-1.65178e-05
-8.22948e-06
-1.27999e-05
-9.45931e-06
-8.93206e-06
-9.64091e-06
-5.34798e-06
-8.66674e-06
-2.46877e-06
-6.62697e-06
-6.261e-07
-3.85744e-06
-9.98446e-07
-1.04161e-06
2.469e-06
-3.56913e-06
6.85967e-06
-7.08164e-06
1.01633e-05
-1.11482e-05
1.22107e-05
-1.53935e-05
1.30359e-05
-1.94892e-05
1.27413e-05
-2.31468e-05
1.14451e-05
-2.61125e-05
9.2659e-06
-2.81673e-05
6.3311e-06
-2.91342e-05
2.79814e-06
-2.88909e-05
-1.12072e-06
-2.73898e-05
-5.1404e-06
-2.46806e-05
-8.89921e-06
-2.09332e-05
-1.19769e-05
-1.64521e-05
-1.39404e-05
-1.16721e-05
-1.4421e-05
-7.12329e-06
-1.32155e-05
-3.36202e-06
-1.03882e-05
-8.76901e-07
-6.34256e-06
-1.87535e-06
-1.26653e-06
3.73553e-06
-4.29338e-06
9.88652e-06
-8.44229e-06
1.43122e-05
-1.31906e-05
1.6959e-05
-1.81083e-05
1.79536e-05
-2.28369e-05
1.74699e-05
-2.70707e-05
1.56789e-05
-3.05435e-05
1.27387e-05
-3.30217e-05
8.80928e-06
-3.43064e-05
4.08285e-06
-3.42444e-05
-1.18269e-06
-3.27483e-05
-6.63648e-06
-2.98256e-05
-1.1822e-05
-2.5613e-05
-1.61894e-05
-2.041e-05
-1.91435e-05
-1.46942e-05
-2.01367e-05
-9.10217e-06
-1.88075e-05
-4.35772e-06
-1.51327e-05
-1.15159e-06
-9.5487e-06
-3.02694e-06
-1.46637e-06
5.20191e-06
-4.93994e-06
1.33601e-05
-9.65928e-06
1.90315e-05
-1.50185e-05
2.23183e-05
-2.05407e-05
2.34758e-05
-2.58468e-05
2.2776e-05
-3.06251e-05
2.04573e-05
-3.46074e-05
1.6721e-05
-3.75534e-05
1.17553e-05
-3.92455e-05
5.77495e-06
-3.94951e-05
-9.33143e-07
-3.81615e-05
-7.96999e-06
-3.51869e-05
-1.47967e-05
-3.0644e-05
-2.07323e-05
-2.47942e-05
-2.49933e-05
-1.81347e-05
-2.67963e-05
-1.14082e-05
-2.5534e-05
-5.53951e-06
-2.10013e-05
-1.48251e-06
-1.36057e-05
-4.50945e-06
-1.64179e-06
6.8437e-06
-5.50582e-06
1.72241e-05
-1.07181e-05
2.42438e-05
-1.65976e-05
2.81978e-05
-2.26301e-05
2.95083e-05
-2.84277e-05
2.85735e-05
-3.36862e-05
2.57158e-05
-3.81491e-05
2.11839e-05
-4.15815e-05
1.51877e-05
-4.37556e-05
7.94901e-06
-4.4449e-05
-2.39735e-07
-4.346e-05
-8.95895e-06
-4.0644e-05
-1.76127e-05
-3.59745e-05
-2.54018e-05
-2.96281e-05
-3.13396e-05
-2.20767e-05
-3.43477e-05
-1.41472e-05
-3.34634e-05
-6.99095e-06
-2.81576e-05
-1.90368e-06
-1.8693e-05
-6.41313e-06
-1.79358e-06
8.63728e-06
-5.98902e-06
2.14196e-05
-1.16027e-05
2.98574e-05
-1.78833e-05
3.44784e-05
-2.42896e-05
3.59146e-05
-3.04394e-05
3.47234e-05
-3.60533e-05
3.13296e-05
-4.09051e-05
2.60357e-05
-4.47838e-05
1.90664e-05
-4.74678e-05
1.0633e-05
-4.87128e-05
1.00533e-06
-4.82586e-05
-9.41318e-06
-4.58603e-05
-2.0011e-05
-4.13567e-05
-2.99054e-05
-3.47805e-05
-3.79158e-05
-2.65044e-05
-4.26239e-05
-1.73806e-05
-4.25872e-05
-8.78639e-06
-3.67519e-05
-2.45073e-06
-2.50286e-05
-8.86386e-06
-1.927e-06
1.05643e-05
-6.39784e-06
2.58904e-05
-1.23077e-05
3.57673e-05
-1.88339e-05
4.10046e-05
-2.54192e-05
4.25e-05
-3.17062e-05
4.10103e-05
-3.74623e-05
3.70857e-05
-4.25158e-05
3.10893e-05
-4.67052e-05
2.32558e-05
-4.98414e-05
1.37692e-05
-5.16833e-05
2.84718e-06
-5.19296e-05
-9.16683e-06
-5.0238e-05
-2.17026e-05
-4.62865e-05
-3.38569e-05
-3.9899e-05
-4.43033e-05
-3.12452e-05
-5.12777e-05
-2.10897e-05
-5.27427e-05
-1.09805e-05
-4.68611e-05
-3.16234e-06
-3.28468e-05
-1.20262e-05
-2.05906e-06
1.26233e-05
-6.76617e-06
3.05975e-05
-1.28573e-05
4.18584e-05
-1.94294e-05
4.75767e-05
-2.59247e-05
4.89953e-05
-3.20359e-05
4.71215e-05
-3.76064e-05
4.26562e-05
-4.25489e-05
3.60317e-05
-4.67829e-05
2.74898e-05
-5.01871e-05
1.71735e-05
-5.25616e-05
5.22165e-06
-5.36019e-05
-8.12652e-06
-5.28944e-05
-2.24101e-05
-4.9954e-05
-3.67973e-05
-4.43409e-05
-4.99164e-05
-3.58984e-05
-5.97202e-05
-2.51253e-05
-6.35158e-05
-1.35908e-05
-5.83955e-05
-4.08241e-06
-4.23552e-05
-1.61086e-05
-2.23005e-06
1.48534e-05
-7.1744e-06
3.55419e-05
-1.33267e-05
4.80108e-05
-1.96895e-05
5.39395e-05
-2.57316e-05
5.50373e-05
-3.12348e-05
5.26247e-05
-3.61561e-05
4.75776e-05
-4.05275e-05
4.04031e-05
-4.43845e-05
3.13469e-05
-4.77131e-05
2.0502e-05
-5.04021e-05
7.91071e-06
-5.21999e-05
-6.32875e-06
-5.26778e-05
-2.19323e-05
-5.1224e-05
-3.8251e-05
-4.71168e-05
-5.40236e-05
-3.97553e-05
-6.70817e-05
-2.91368e-05
-7.41343e-05
-1.65661e-05
-7.09663e-05
-5.26191e-06
-5.36593e-05
-2.13705e-05
-2.52225e-06
1.73756e-05
-7.77501e-06
4.07946e-05
-1.38577e-05
5.40935e-05
-1.96732e-05
5.9755e-05
-2.4774e-05
6.01381e-05
-2.90939e-05
5.69446e-05
-3.27532e-05
5.1237e-05
-3.59407e-05
4.35905e-05
-3.88402e-05
3.42464e-05
-4.15804e-05
2.32422e-05
-4.41867e-05
1.0517e-05
-4.65256e-05
-3.98987e-06
-4.82373e-05
-2.02205e-05
-4.86701e-05
-3.78182e-05
-4.68677e-05
-5.5826e-05
-4.17225e-05
-7.22269e-05
-3.24762e-05
-8.33806e-05
-1.9728e-05
-8.37145e-05
-6.75725e-06
-6.66301e-05
-2.81278e-05
-3.08987e-06
2.04655e-05
-8.81506e-06
4.65198e-05
-1.46414e-05
5.99198e-05
-1.94208e-05
6.45344e-05
-2.29111e-05
6.36285e-05
-2.52983e-05
5.93317e-05
-2.693e-05
5.28687e-05
-2.81872e-05
4.48477e-05
-2.94226e-05
3.54819e-05
-3.09265e-05
2.4746e-05
-3.28919e-05
1.24824e-05
-3.5361e-05
-1.52072e-06
-3.81389e-05
-1.74427e-05
-4.06674e-05
-3.52897e-05
-4.18961e-05
-5.45973e-05
-4.02654e-05
-7.38576e-05
-3.40777e-05
-8.95683e-05
-2.26681e-05
-9.51241e-05
-8.61271e-06
-8.06854e-05
-3.67405e-05
-4.20007e-06
2.46656e-05
-1.06205e-05
5.29403e-05
-1.57948e-05
6.5094e-05
-1.87425e-05
6.74821e-05
-1.96701e-05
6.45561e-05
-1.91639e-05
5.88255e-05
-1.78682e-05
5.1573e-05
-1.6376e-05
4.33555e-05
-1.52029e-05
3.43088e-05
-1.4787e-05
2.433e-05
-1.54841e-05
1.31796e-05
-1.7536e-05
5.31132e-07
-2.09879e-05
-1.39908e-05
-2.55303e-05
-3.07473e-05
-3.02525e-05
-4.98751e-05
-3.33802e-05
-7.07298e-05
-3.23003e-05
-9.06482e-05
-2.4552e-05
-0.000102872
-1.07862e-05
-9.44512e-05
-4.75267e-05
-6.24622e-06
3.09118e-05
-1.34042e-05
6.00983e-05
-1.69227e-05
6.86125e-05
-1.66364e-05
6.71959e-05
-1.36266e-05
6.15462e-05
-9.05079e-06
5.42497e-05
-3.88361e-06
4.64058e-05
1.10162e-06
3.83703e-05
5.28549e-06
3.01249e-05
8.14621e-06
2.14693e-05
9.22317e-06
1.21026e-05
8.11065e-06
1.64365e-06
4.50705e-06
-1.03872e-05
-1.64659e-06
-2.45937e-05
-9.86099e-06
-4.16607e-05
-1.85917e-05
-6.19992e-05
-2.47088e-05
-8.45311e-05
-2.37469e-05
-0.000103834
-1.29125e-05
-0.000105286
-6.04392e-05
-9.56054e-06
4.04723e-05
-1.64251e-05
6.69629e-05
-1.58198e-05
6.80072e-05
-9.88818e-06
6.12642e-05
-1.12511e-06
5.27832e-05
8.70398e-06
4.44206e-05
1.84191e-05
3.66907e-05
2.72233e-05
2.95661e-05
3.45398e-05
2.28085e-05
3.98937e-05
1.61154e-05
4.28351e-05
9.16122e-06
4.28958e-05
1.58295e-06
3.95879e-05
-7.07932e-06
3.24672e-05
-1.74729e-05
2.13772e-05
-3.05707e-05
7.05188e-06
-4.76739e-05
-7.76931e-06
-6.97099e-05
-1.72119e-05
-9.43917e-05
-1.37616e-05
-0.000108736
-7.42009e-05
-1.34293e-05
5.39016e-05
-1.5079e-05
6.86126e-05
-5.09581e-06
5.8024e-05
9.81215e-06
4.63563e-05
2.58422e-05
3.67531e-05
4.12105e-05
2.90523e-05
5.50371e-05
2.28642e-05
6.68579e-05
1.77453e-05
7.63846e-05
1.32818e-05
8.33659e-05
9.13411e-06
8.75074e-05
5.01971e-06
8.84171e-05
6.73251e-07
8.55696e-05
-4.23184e-06
7.82589e-05
-1.01622e-05
6.56564e-05
-1.79681e-05
4.71822e-05
-2.91997e-05
2.37905e-05
-4.63182e-05
7.09722e-07
-7.1311e-05
-1.02169e-05
-9.78093e-05
-8.44177e-05
-9.40777e-06
6.33094e-05
8.8232e-06
5.03816e-05
3.51815e-05
3.16658e-05
6.00355e-05
2.15022e-05
8.14819e-05
1.53068e-05
9.94496e-05
1.10845e-05
0.000114197
8.1163e-06
0.000126009
5.93355e-06
0.000135089
4.20158e-06
0.000141522
2.70102e-06
0.000145258
1.28451e-06
0.000146088
-1.57343e-07
0.000143623
-1.76685e-06
0.000137161
-3.70019e-06
0.000125531
-6.33785e-06
0.000106883
-1.05517e-05
7.90679e-05
-1.85031e-05
4.22873e-05
-3.45304e-05
6.89606e-06
-6.24181e-05
-7.75217e-05
6.33094e-05
0.000113691
0.000145357
0.000166859
0.000182166
0.00019325
0.000201367
0.0002073
0.000211502
0.000214203
0.000215487
0.00021533
0.000213563
0.000209863
0.000203525
0.000192973
0.00017447
0.00013994
7.75217e-05
)
;

boundaryField
{
    movingWall
    {
        type            calculated;
        value           uniform 0;
    }
    fixedWalls
    {
        type            calculated;
        value           uniform 0;
    }
    frontAndBack
    {
        type            empty;
        value           nonuniform List<scalar> 0();
    }
}


// ************************************************************************* //
