/*--------------------------------*- C++ -*----------------------------------*\
  =========                 |
  \\      /  F ield         | OpenFOAM: The Open Source CFD Toolbox
   \\    /   O peration     | Website:  https://openfoam.org
    \\  /    A nd           | Version:  8
     \\/     M anipulation  |
\*---------------------------------------------------------------------------*/
FoamFile
{
    version     2.0;
    format      ascii;
    class       volVectorField;
    location    "1";
    object      U;
}
// * * * * * * * * * * * * * * * * * * * * * * * * * * * * * * * * * * * * * //

dimensions      [0 1 -1 0 0 0 0];

internalField   nonuniform List<vector> 
400
(
(0.00120355 -0.00120819 0)
(0.000401059 0.000672807 0)
(-0.00645112 0.00286735 0)
(-0.0179679 0.00434046 0)
(-0.0321736 0.00506926 0)
(-0.0472958 0.00518548 0)
(-0.0618296 0.00480601 0)
(-0.0744928 0.00400742 0)
(-0.0841719 0.00283743 0)
(-0.0899092 0.00134563 0)
(-0.0909624 -0.000383524 0)
(-0.086926 -0.0022071 0)
(-0.0778828 -0.00391644 0)
(-0.0645391 -0.00525281 0)
(-0.0482878 -0.00594607 0)
(-0.031149 -0.00577335 0)
(-0.0155465 -0.00462882 0)
(-0.00390947 -0.00259441 0)
(0.00189181 -8.67253e-05 0)
(0.00157715 0.0015244 0)
(-0.000623342 -0.000512708 0)
(-0.00896372 0.00883898 0)
(-0.0300554 0.0184024 0)
(-0.0603832 0.0249845 0)
(-0.0959776 0.0282379 0)
(-0.133165 0.0284686 0)
(-0.168532 0.0260731 0)
(-0.199027 0.0213975 0)
(-0.221999 0.0147504 0)
(-0.235248 0.00649926 0)
(-0.237187 -0.0028165 0)
(-0.227075 -0.0124091 0)
(-0.205292 -0.0212345 0)
(-0.173559 -0.0280763 0)
(-0.13501 -0.0317272 0)
(-0.0940164 -0.0312533 0)
(-0.0556678 -0.0263044 0)
(-0.0249201 -0.0174124 0)
(-0.00569992 -0.00641511 0)
(0.000312481 0.00208279 0)
(-0.00307539 0.00649684 0)
(-0.020105 0.0303298 0)
(-0.0555765 0.0520734 0)
(-0.102987 0.066899 0)
(-0.156653 0.0739933 0)
(-0.211691 0.0737846 0)
(-0.263472 0.0670319 0)
(-0.30779 0.0545301 0)
(-0.34098 0.0371093 0)
(-0.360038 0.0158036 0)
(-0.362825 -0.00794505 0)
(-0.348375 -0.0321528 0)
(-0.317217 -0.0543032 0)
(-0.271645 -0.0715484 0)
(-0.215819 -0.081119 0)
(-0.15556 -0.0809174 0)
(-0.0977052 -0.0702117 0)
(-0.0490433 -0.0502774 0)
(-0.015579 -0.0250307 0)
(-0.00167171 -0.0026053 0)
(-0.00527184 0.0195492 0)
(-0.0305676 0.0642323 0)
(-0.0798734 0.101421 0)
(-0.143247 0.125947 0)
(-0.213203 0.137012 0)
(-0.283884 0.135367 0)
(-0.349828 0.122247 0)
(-0.406076 0.0990043 0)
(-0.448307 0.0671269 0)
(-0.472951 0.0284909 0)
(-0.477413 -0.0143411 0)
(-0.460408 -0.0579239 0)
(-0.422332 -0.0979485 0)
(-0.365616 -0.129557 0)
(-0.294929 -0.147995 0)
(-0.217084 -0.149577 0)
(-0.140409 -0.13284 0)
(-0.073616 -0.0995995 0)
(-0.0253386 -0.0557529 0)
(-0.00346084 -0.0125724 0)
(-0.00717273 0.0379667 0)
(-0.0400198 0.109528 0)
(-0.102242 0.165029 0)
(-0.180474 0.200194 0)
(-0.265424 0.214963 0)
(-0.350383 0.210794 0)
(-0.429291 0.189594 0)
(-0.496711 0.153364 0)
(-0.547892 0.104301 0)
(-0.57883 0.0451564 0)
(-0.586458 -0.0203518 0)
(-0.568982 -0.0872485 0)
(-0.526321 -0.149287 0)
(-0.460585 -0.199325 0)
(-0.376493 -0.230181 0)
(-0.281532 -0.235986 0)
(-0.185503 -0.213883 0)
(-0.0994082 -0.165641 0)
(-0.035231 -0.0987627 0)
(-0.00510989 -0.0275229 0)
(-0.00883578 0.0611563 0)
(-0.0484949 0.165312 0)
(-0.12254 0.241944 0)
(-0.21442 0.288661 0)
(-0.313142 0.306892 0)
(-0.411272 0.299275 0)
(-0.50235 0.268636 0)
(-0.580674 0.217719 0)
(-0.641249 0.149415 0)
(-0.679723 0.0672633 0)
(-0.692507 -0.0239732 0)
(-0.677086 -0.117878 0)
(-0.632519 -0.206242 0)
(-0.56009 -0.279404 0)
(-0.464047 -0.327223 0)
(-0.352166 -0.340799 0)
(-0.235668 -0.314839 0)
(-0.128271 -0.250107 0)
(-0.0462034 -0.155187 0)
(-0.00687284 -0.0476236 0)
(-0.0103011 0.0885944 0)
(-0.0560373 0.23058 0)
(-0.140682 0.330981 0)
(-0.244795 0.390132 0)
(-0.355857 0.411681 0)
(-0.465876 0.399953 0)
(-0.568196 0.358971 0)
(-0.657081 0.292309 0)
(-0.727488 0.203476 0)
(-0.77484 0.0966094 0)
(-0.795019 -0.0227481 0)
(-0.784618 -0.146993 0)
(-0.741466 -0.266091 0)
(-0.665466 -0.367727 0)
(-0.559717 -0.438231 0)
(-0.431664 -0.464593 0)
(-0.293637 -0.437598 0)
(-0.162364 -0.355506 0)
(-0.0594098 -0.227117 0)
(-0.00904761 -0.0736621 0)
(-0.0115884 0.119786 0)
(-0.0626562 0.304241 0)
(-0.156533 0.430713 0)
(-0.271146 0.503025 0)
(-0.392647 0.52777 0)
(-0.512689 0.511503 0)
(-0.62468 0.45975 0)
(-0.72313 0.376991 0)
(-0.803215 0.267238 0)
(-0.860351 0.134943 0)
(-0.890007 -0.0139772 0)
(-0.887833 -0.17118 0)
(-0.850148 -0.32517 0)
(-0.774911 -0.461048 0)
(-0.663222 -0.561161 0)
(-0.521206 -0.607172 0)
(-0.361503 -0.583966 0)
(-0.203759 -0.485004 0)
(-0.0760785 -0.317678 0)
(-0.0119624 -0.107102 0)
(-0.012718 0.15424 0)
(-0.0683792 0.38513 0)
(-0.169974 0.539456 0)
(-0.292934 0.625277 0)
(-0.422255 0.652919 0)
(-0.549484 0.631768 0)
(-0.668418 0.5692 0)
(-0.774179 0.470697 0)
(-0.86254 0.340635 0)
(-0.929268 0.183436 0)
(-0.969719 0.00486564 0)
(-0.978768 -0.186644 0)
(-0.951145 -0.378786 0)
(-0.882396 -0.554521 0)
(-0.770678 -0.69208 0)
(-0.619389 -0.766672 0)
(-0.439961 -0.754876 0)
(-0.254102 -0.641978 0)
(-0.0974698 -0.430938 0)
(-0.0159994 -0.150113 0)
(-0.0137578 0.191511 0)
(-0.073397 0.472061 0)
(-0.181131 0.655235 0)
(-0.309799 0.754174 0)
(-0.44336 0.783888 0)
(-0.573578 0.757308 0)
(-0.69506 0.684071 0)
(-0.80401 0.570788 0)
(-0.897297 0.422077 0)
(-0.971561 0.241971 0)
(-1.02258 0.0354911 0)
(-1.04489 -0.189667 0)
(-1.03191 -0.421374 0)
(-0.976593 -0.641398 0)
(-0.873272 -0.824349 0)
(-0.720907 -0.938338 0)
(-0.527324 -0.949093 0)
(-0.314175 -0.829093 0)
(-0.124863 -0.571597 0)
(-0.0216463 -0.205614 0)
(-0.0149031 0.231343 0)
(-0.0783011 0.564011 0)
(-0.190729 0.775829 0)
(-0.321935 0.886203 0)
(-0.454947 0.916118 0)
(-0.5822 0.882948 0)
(-0.699685 0.799073 0)
(-0.805273 0.672402 0)
(-0.897539 0.507713 0)
(-0.974664 0.30833 0)
(-1.03357 0.0779416 0)
(-1.06929 -0.177407 0)
(-1.07458 -0.447045 0)
(-1.04013 -0.713108 0)
(-0.956026 -0.948008 0)
(-0.815044 -1.11316 0)
(-0.618199 -1.16144 0)
(-0.383204 -1.04682 0)
(-0.159509 -0.744387 0)
(-0.0295769 -0.277368 0)
(-0.0166133 0.274014 0)
(-0.0844425 0.660499 0)
(-0.200537 0.898882 0)
(-0.330499 1.01689 0)
(-0.456617 1.0434 0)
(-0.572766 1.00135 0)
(-0.677125 0.906403 0)
(-0.769952 0.76792 0)
(-0.852208 0.590793 0)
(-0.924334 0.377406 0)
(-0.985275 0.129644 0)
(-1.03157 -0.14896 0)
(-1.05652 -0.450623 0)
(-1.04963 -0.759941 0)
(-0.997038 -1.0497 0)
(-0.884209 -1.27674 0)
(-0.701797 -1.38064 0)
(-0.457726 -1.2912 0)
(-0.202449 -0.952998 0)
(-0.0407627 -0.370129 0)
(-0.0198517 0.320977 0)
(-0.0944482 0.762148 0)
(-0.213825 1.02196 0)
(-0.337755 1.14048 0)
(-0.448439 1.15741 0)
(-0.542585 1.10259 0)
(-0.62173 0.995385 0)
(-0.689378 0.846656 0)
(-0.749532 0.661325 0)
(-0.805537 0.440707 0)
(-0.859145 0.184621 0)
(-0.909532 -0.106514 0)
(-0.952056 -0.429079 0)
(-0.976817 -0.772484 0)
(-0.967652 -1.11351 0)
(-0.902891 -1.40872 0)
(-0.759985 -1.58716 0)
(-0.529806 -1.55072 0)
(-0.254004 -1.19813 0)
(-0.0565929 -0.489837 0)
(-0.0265042 0.376003 0)
(-0.112904 0.871338 0)
(-0.235476 1.14222 0)
(-0.346291 1.24916 0)
(-0.429454 1.24694 0)
(-0.487024 1.17363 0)
(-0.525576 1.05227 0)
(-0.552797 0.894924 0)
(-0.576231 0.706272 0)
(-0.602454 0.486464 0)
(-0.636467 0.233258 0)
(-0.680905 -0.0561755 0)
(-0.73468 -0.383106 0)
(-0.790844 -0.743765 0)
(-0.833881 -1.12305 0)
(-0.837461 -1.48379 0)
(-0.765307 -1.75167 0)
(-0.584362 -1.80243 0)
(-0.312433 -1.47395 0)
(-0.0788508 -0.643548 0)
(-0.040005 0.447067 0)
(-0.146906 0.992437 0)
(-0.270647 1.25492 0)
(-0.355534 1.33111 0)
(-0.392802 1.29643 0)
(-0.394154 1.1976 0)
(-0.373308 1.06031 0)
(-0.342886 0.896727 0)
(-0.314012 0.710627 0)
(-0.296224 0.50081 0)
(-0.297507 0.263205 0)
(-0.324041 -0.0078049 0)
(-0.379167 -0.318146 0)
(-0.461108 -0.671724 0)
(-0.558985 -1.06499 0)
(-0.647031 -1.47478 0)
(-0.679075 -1.83558 0)
(-0.595032 -2.00818 0)
(-0.370523 -1.76253 0)
(-0.108912 -0.838455 0)
(-0.0657131 0.549468 0)
(-0.204743 1.13012 0)
(-0.318349 1.349 0)
(-0.351047 1.36659 0)
(-0.313271 1.28367 0)
(-0.232431 1.15323 0)
(-0.131 1.00056 0)
(-0.0262697 0.835603 0)
(0.0680819 0.659927 0)
(0.140857 0.470605 0)
(0.182369 0.262114 0)
(0.183923 0.0270497 0)
(0.138123 -0.243757 0)
(0.0404827 -0.560793 0)
(-0.106555 -0.933102 0)
(-0.285251 -1.35806 0)
(-0.449429 -1.79472 0)
(-0.517752 -2.11268 0)
(-0.407762 -2.02678 0)
(-0.144215 -1.08073 0)
(-0.108539 0.712113 0)
(-0.286058 1.28072 0)
(-0.348941 1.39353 0)
(-0.276092 1.31799 0)
(-0.11974 1.17508 0)
(0.0729658 1.01425 0)
(0.272894 0.853912 0)
(0.46125 0.698126 0)
(0.624919 0.544538 0)
(0.753813 0.388092 0)
(0.838978 0.222342 0)
(0.871386 0.0394969 0)
(0.841453 -0.170454 0)
(0.739345 -0.421201 0)
(0.557353 -0.731254 0)
(0.297817 -1.11995 0)
(-0.00899842 -1.58552 0)
(-0.281507 -2.04305 0)
(-0.37603 -2.20041 0)
(-0.167775 -1.37366 0)
(-0.155416 0.978406 0)
(-0.340066 1.40038 0)
(-0.237084 1.30637 0)
(0.0334853 1.1147 0)
(0.355058 0.923718 0)
(0.674826 0.754277 0)
(0.969809 0.60863 0)
(1.22812 0.481875 0)
(1.44293 0.367084 0)
(1.60932 0.257485 0)
(1.72215 0.146723 0)
(1.77478 0.0282352 0)
(1.75829 -0.106058 0)
(1.66046 -0.268161 0)
(1.4654 -0.478169 0)
(1.15688 -0.768833 0)
(0.731219 -1.1806 0)
(0.228189 -1.71326 0)
(-0.173244 -2.15935 0)
(-0.118899 -1.67489 0)
(-0.0475324 1.26943 0)
(-0.0720085 1.31681 0)
(0.411487 0.968927 0)
(0.95825 0.709527 0)
(1.42956 0.52933 0)
(1.82319 0.398413 0)
(2.14929 0.301134 0)
(2.4142 0.226129 0)
(2.62271 0.164581 0)
(2.77783 0.110109 0)
(2.88005 0.0580018 0)
(2.92691 0.00428129 0)
(2.9127 -0.055293 0)
(2.82693 -0.127351 0)
(2.65178 -0.224376 0)
(2.35835 -0.373269 0)
(1.90176 -0.630356 0)
(1.22451 -1.07916 0)
(0.452821 -1.68846 0)
(0.217493 -1.70171 0)
(1.43824 0.707187 0)
(1.83567 0.626566 0)
(2.56331 0.39827 0)
(3.13739 0.251661 0)
(3.51178 0.164252 0)
(3.76898 0.109427 0)
(3.95654 0.0740002 0)
(4.0949 0.0502364 0)
(4.19505 0.0331205 0)
(4.26341 0.0195222 0)
(4.30307 0.00749233 0)
(4.31455 -0.0043069 0)
(4.29599 -0.0169542 0)
(4.24263 -0.0321724 0)
(4.14465 -0.0531776 0)
(3.98091 -0.0879796 0)
(3.70219 -0.158352 0)
(3.17413 -0.316147 0)
(2.29937 -0.622725 0)
(1.66815 -0.779824 0)
)
;

boundaryField
{
    movingWall
    {
        type            fixedValue;
        value           uniform (5.0738 0 0);
    }
    fixedWalls
    {
        type            noSlip;
    }
    frontAndBack
    {
        type            empty;
    }
}


// ************************************************************************* //
