/*--------------------------------*- C++ -*----------------------------------*\
  =========                 |
  \\      /  F ield         | OpenFOAM: The Open Source CFD Toolbox
   \\    /   O peration     | Website:  https://openfoam.org
    \\  /    A nd           | Version:  8
     \\/     M anipulation  |
\*---------------------------------------------------------------------------*/
FoamFile
{
    version     2.0;
    format      ascii;
    class       volScalarField;
    location    "1";
    object      p;
}
// * * * * * * * * * * * * * * * * * * * * * * * * * * * * * * * * * * * * * //

dimensions      [0 2 -2 0 0 0 0];

internalField   nonuniform List<scalar> 
400
(
-0.0991849
-0.198177
-0.251327
-0.276706
-0.28034
-0.268124
-0.243183
-0.206103
-0.15953
-0.106455
-0.0491119
0.0103158
0.0690615
0.123983
0.172206
0.211684
0.241422
0.261406
0.272417
0.276079
-0.198566
-0.239042
-0.268572
-0.283723
-0.282708
-0.267852
-0.241509
-0.20437
-0.158622
-0.106621
-0.0501867
0.00865864
0.0671342
0.121965
0.170084
0.209271
0.238456
0.257566
0.266964
0.266612
-0.250267
-0.268477
-0.280283
-0.284685
-0.277356
-0.260006
-0.233934
-0.198835
-0.156255
-0.107974
-0.0551383
0.000790011
0.0572263
0.110667
0.157566
0.195274
0.222609
0.239714
0.247155
0.245403
-0.273278
-0.280777
-0.280782
-0.276587
-0.263961
-0.244831
-0.220081
-0.188582
-0.151251
-0.109252
-0.0628217
-0.0124807
0.0396834
0.0900338
0.134471
0.169785
0.194541
0.209007
0.214094
0.21084
-0.278107
-0.279139
-0.271691
-0.261098
-0.244137
-0.223586
-0.200498
-0.173175
-0.142049
-0.107965
-0.0703684
-0.0286052
0.0161563
0.060533
0.100146
0.131397
0.15262
0.163993
0.166727
0.162255
-0.270423
-0.267717
-0.255807
-0.241125
-0.221186
-0.199807
-0.178705
-0.155813
-0.131059
-0.10549
-0.0783517
-0.0478693
-0.0138029
0.0214094
0.0536859
0.0793346
0.0964125
0.104709
0.10568
0.100934
-0.255852
-0.251915
-0.238344
-0.222298
-0.201327
-0.180035
-0.161241
-0.142826
-0.123728
-0.105646
-0.0887684
-0.0708608
-0.0500082
-0.0268258
-0.00416111
0.0147612
0.0277268
0.0337203
0.0341381
0.0304184
-0.239723
-0.236881
-0.224587
-0.210373
-0.191063
-0.171337
-0.155384
-0.141992
-0.127937
-0.115256
-0.10641
-0.100117
-0.0930999
-0.0834104
-0.0715557
-0.0595045
-0.0496432
-0.044308
-0.0428411
-0.0445918
-0.224467
-0.22498
-0.216972
-0.208293
-0.19452
-0.179177
-0.167225
-0.160779
-0.153
-0.144375
-0.140239
-0.142171
-0.146778
-0.14948
-0.147581
-0.140947
-0.131914
-0.124706
-0.120526
-0.120513
-0.208312
-0.213871
-0.212831
-0.213506
-0.210393
-0.204608
-0.19873
-0.20253
-0.205412
-0.202814
-0.201544
-0.20745
-0.219041
-0.230166
-0.234859
-0.2303
-0.218436
-0.205853
-0.197141
-0.196721
-0.185122
-0.196265
-0.204722
-0.218486
-0.231801
-0.244169
-0.248136
-0.265497
-0.285365
-0.295026
-0.298953
-0.306673
-0.320356
-0.3343
-0.340384
-0.333146
-0.313687
-0.291008
-0.274672
-0.274464
-0.145729
-0.162313
-0.184397
-0.216205
-0.251017
-0.29312
-0.31446
-0.347641
-0.388577
-0.417601
-0.432754
-0.44407
-0.457312
-0.469179
-0.471529
-0.457101
-0.425316
-0.386521
-0.356002
-0.351971
-0.0813008
-0.104336
-0.148112
-0.207396
-0.266902
-0.34741
-0.398214
-0.45065
-0.511889
-0.56256
-0.594001
-0.612604
-0.62516
-0.631647
-0.626714
-0.603078
-0.556651
-0.495566
-0.438982
-0.418607
0.012936
-0.0209853
-0.0965794
-0.197989
-0.286036
-0.398633
-0.48732
-0.567361
-0.649509
-0.721274
-0.771623
-0.799353
-0.80733
-0.801308
-0.784236
-0.751821
-0.693421
-0.607639
-0.510082
-0.452732
0.138375
0.0835279
-0.0260016
-0.175014
-0.303496
-0.425983
-0.54164
-0.658108
-0.774355
-0.8779
-0.957401
-0.999803
-0.983649
-0.941404
-0.896574
-0.852208
-0.788301
-0.684842
-0.539609
-0.425706
0.302185
0.20914
0.0778758
-0.0843217
-0.265934
-0.397409
-0.527677
-0.689859
-0.875354
-1.05213
-1.18705
-1.24026
-1.18286
-1.05163
-0.917871
-0.826382
-0.75367
-0.651858
-0.480362
-0.310018
0.525039
0.382575
0.239132
0.116612
-0.0927083
-0.292281
-0.515487
-0.782906
-1.07169
-1.33361
-1.51618
-1.57685
-1.49648
-1.26382
-0.95483
-0.668914
-0.483237
-0.390205
-0.265366
-0.0888732
0.837203
0.689991
0.543372
0.366669
0.0751528
-0.269969
-0.665327
-1.0675
-1.41608
-1.67874
-1.84471
-1.90853
-1.85964
-1.6649
-1.2741
-0.695407
-0.132168
0.200047
0.247499
0.314894
1.45424
1.25523
0.951503
0.481828
-0.106581
-0.64551
-1.08639
-1.44578
-1.73068
-1.94181
-2.08098
-2.14805
-2.13354
-2.00917
-1.71976
-1.17918
-0.310857
0.604443
1.10251
1.19911
2.09953
1.6227
0.830049
-0.00159272
-0.585004
-1.00272
-1.34175
-1.6276
-1.86055
-2.03841
-2.16106
-2.22721
-2.22835
-2.14408
-1.94136
-1.57515
-0.944542
0.126335
1.46139
2.18911
)
;

boundaryField
{
    movingWall
    {
        type            zeroGradient;
    }
    fixedWalls
    {
        type            zeroGradient;
    }
    frontAndBack
    {
        type            empty;
    }
}


// ************************************************************************* //
