/*--------------------------------*- C++ -*----------------------------------*\
  =========                 |
  \\      /  F ield         | OpenFOAM: The Open Source CFD Toolbox
   \\    /   O peration     | Website:  https://openfoam.org
    \\  /    A nd           | Version:  8
     \\/     M anipulation  |
\*---------------------------------------------------------------------------*/
FoamFile
{
    version     2.0;
    format      ascii;
    class       surfaceScalarField;
    location    "1";
    object      phi;
}
// * * * * * * * * * * * * * * * * * * * * * * * * * * * * * * * * * * * * * //

dimensions      [0 3 -1 0 0 0 0];

internalField   nonuniform List<scalar> 
760
(
6.39923e-08
-6.41586e-08
-1.33887e-07
1.9788e-07
-6.01367e-07
4.67484e-07
-1.24968e-06
6.48316e-07
-1.98607e-06
7.36387e-07
-2.72948e-06
7.43406e-07
-3.41101e-06
6.81527e-07
-3.97128e-06
5.60273e-07
-4.35861e-06
3.87337e-07
-4.53026e-06
1.71646e-07
-4.45699e-06
-7.32706e-08
-4.1301e-06
-3.26889e-07
-3.56873e-06
-5.61365e-07
-2.82506e-06
-7.43672e-07
-1.98452e-06
-8.4054e-07
-1.15883e-06
-8.25689e-07
-4.70574e-07
-6.88259e-07
-2.98245e-08
-4.40749e-07
1.02192e-07
-1.32014e-07
1.02196e-07
-1.96259e-07
1.32091e-07
-9.66053e-07
9.67682e-07
-2.25656e-06
1.75799e-06
-3.90572e-06
2.29747e-06
-5.7275e-06
2.55817e-06
-7.54319e-06
2.5591e-06
-9.19133e-06
2.32966e-06
-1.05298e-05
1.89871e-06
-1.14373e-05
1.29489e-06
-1.1819e-05
5.53338e-07
-1.16161e-05
-2.76207e-07
-1.08188e-05
-1.12416e-06
-9.47918e-06
-1.90099e-06
-7.71833e-06
-2.50452e-06
-5.72407e-06
-2.8348e-06
-3.73412e-06
-2.81565e-06
-2.00245e-06
-2.41993e-06
-7.50102e-07
-1.69311e-06
-1.0326e-07
-7.78865e-07
-1.06033e-09
-5.06094e-07
6.38191e-07
-1.89219e-06
2.35378e-06
-3.96684e-06
3.83265e-06
-6.48966e-06
4.82029e-06
-9.20788e-06
5.27639e-06
-1.18794e-05
5.2306e-06
-1.42828e-05
4.73311e-06
-1.6222e-05
3.83784e-06
-1.753e-05
2.60297e-06
-1.80782e-05
1.1015e-06
-1.77883e-05
-5.66149e-07
-1.66486e-05
-2.26385e-06
-1.47291e-05
-3.82041e-06
-1.2191e-05
-5.04264e-06
-9.2838e-06
-5.74201e-06
-6.32568e-06
-5.77376e-06
-3.66242e-06
-5.08319e-06
-1.60738e-06
-3.74815e-06
-3.71302e-07
-2.01495e-06
-3.7236e-07
-7.89362e-07
1.42756e-06
-2.7682e-06
4.33262e-06
-5.58704e-06
6.65148e-06
-8.91171e-06
8.14496e-06
-1.24269e-05
8.79155e-06
-1.58427e-05
8.64647e-06
-1.88979e-05
7.78829e-06
-2.13611e-05
6.30098e-06
-2.30349e-05
4.27678e-06
-2.37649e-05
1.83152e-06
-2.34535e-05
-8.77542e-07
-2.20777e-05
-3.63968e-06
-1.97074e-05
-6.19069e-06
-1.65196e-05
-8.23041e-06
-1.28013e-05
-9.46038e-06
-8.93302e-06
-9.64199e-06
-5.34853e-06
-8.66768e-06
-2.46901e-06
-6.62766e-06
-6.26153e-07
-3.8578e-06
-9.98513e-07
-1.04172e-06
2.46928e-06
-3.56951e-06
6.86041e-06
-7.08239e-06
1.01644e-05
-1.11494e-05
1.2212e-05
-1.53951e-05
1.30373e-05
-1.94913e-05
1.27427e-05
-2.31493e-05
1.14463e-05
-2.61153e-05
9.26694e-06
-2.81704e-05
6.33186e-06
-2.91374e-05
2.79854e-06
-2.88942e-05
-1.12076e-06
-2.73929e-05
-5.14091e-06
-2.46834e-05
-8.90018e-06
-2.09356e-05
-1.19782e-05
-1.6454e-05
-1.3942e-05
-1.16734e-05
-1.44226e-05
-7.12406e-06
-1.3217e-05
-3.36237e-06
-1.03893e-05
-8.76983e-07
-6.34319e-06
-1.8755e-06
-1.26667e-06
3.73595e-06
-4.29384e-06
9.88758e-06
-8.44318e-06
1.43137e-05
-1.3192e-05
1.69608e-05
-1.81102e-05
1.79555e-05
-2.28393e-05
1.74717e-05
-2.70736e-05
1.56806e-05
-3.05468e-05
1.27402e-05
-3.30253e-05
8.81037e-06
-3.43102e-05
4.08345e-06
-3.42483e-05
-1.18267e-06
-3.27521e-05
-6.6371e-06
-2.9829e-05
-1.18233e-05
-2.5616e-05
-1.61912e-05
-2.04124e-05
-1.91457e-05
-1.46959e-05
-2.01391e-05
-9.10322e-06
-1.88097e-05
-4.3582e-06
-1.51344e-05
-1.15171e-06
-9.54968e-06
-3.0272e-06
-1.46653e-06
5.20248e-06
-4.94045e-06
1.33615e-05
-9.66027e-06
1.90335e-05
-1.502e-05
2.23206e-05
-2.05428e-05
2.34782e-05
-2.58495e-05
2.27784e-05
-3.06283e-05
2.04595e-05
-3.46111e-05
1.6723e-05
-3.75575e-05
1.17567e-05
-3.92499e-05
5.77583e-06
-3.94996e-05
-9.32994e-07
-3.8166e-05
-7.97067e-06
-3.5191e-05
-1.47982e-05
-3.06477e-05
-2.07346e-05
-2.47972e-05
-2.49962e-05
-1.81369e-05
-2.67994e-05
-1.14095e-05
-2.5537e-05
-5.54016e-06
-2.10037e-05
-1.48267e-06
-1.36072e-05
-4.50988e-06
-1.64196e-06
6.84444e-06
-5.50638e-06
1.72259e-05
-1.07191e-05
2.42463e-05
-1.65992e-05
2.82007e-05
-2.26324e-05
2.95114e-05
-2.84306e-05
2.85766e-05
-3.36897e-05
2.57186e-05
-3.81531e-05
2.11864e-05
-4.1586e-05
1.51897e-05
-4.37604e-05
7.95026e-06
-4.44541e-05
-2.39367e-07
-4.34651e-05
-8.9596e-06
-4.06489e-05
-1.76144e-05
-3.59789e-05
-2.54045e-05
-2.96318e-05
-3.13432e-05
-2.20795e-05
-3.43518e-05
-1.4149e-05
-3.34674e-05
-6.99182e-06
-2.81609e-05
-1.90391e-06
-1.86951e-05
-6.41378e-06
-1.79375e-06
8.6382e-06
-5.98959e-06
2.14218e-05
-1.16037e-05
2.98604e-05
-1.7885e-05
3.44819e-05
-2.42919e-05
3.59183e-05
-3.04423e-05
3.4727e-05
-3.60569e-05
3.13331e-05
-4.09093e-05
2.60388e-05
-4.47885e-05
1.90689e-05
-4.74729e-05
1.06347e-05
-4.87183e-05
1.00602e-06
-4.82642e-05
-9.41369e-06
-4.58658e-05
-2.00129e-05
-4.13618e-05
-2.99086e-05
-3.4785e-05
-3.79201e-05
-2.65078e-05
-4.2629e-05
-1.73829e-05
-4.25923e-05
-8.78752e-06
-3.67563e-05
-2.45104e-06
-2.50316e-05
-8.86481e-06
-1.92717e-06
1.05654e-05
-6.3984e-06
2.5893e-05
-1.23088e-05
3.57708e-05
-1.88355e-05
4.10086e-05
-2.54215e-05
4.25043e-05
-3.17091e-05
4.10146e-05
-3.74658e-05
3.70898e-05
-4.25199e-05
3.1093e-05
-4.67099e-05
2.32589e-05
-4.98467e-05
1.37714e-05
-5.16889e-05
2.8483e-06
-5.19356e-05
-9.16707e-06
-5.0244e-05
-2.17044e-05
-4.62923e-05
-3.38603e-05
-3.99041e-05
-4.43083e-05
-3.12493e-05
-5.12838e-05
-2.10925e-05
-5.27491e-05
-1.0982e-05
-4.68669e-05
-3.16276e-06
-3.28508e-05
-1.20276e-05
-2.05921e-06
1.26246e-05
-6.76669e-06
3.06005e-05
-1.28583e-05
4.18624e-05
-1.94309e-05
4.75812e-05
-2.59268e-05
4.90002e-05
-3.20386e-05
4.71264e-05
-3.76097e-05
4.26609e-05
-4.25527e-05
3.6036e-05
-4.67874e-05
2.74935e-05
-5.01922e-05
1.71763e-05
-5.25671e-05
5.22328e-06
-5.36078e-05
-8.12636e-06
-5.29005e-05
-2.24117e-05
-4.996e-05
-3.68008e-05
-4.43465e-05
-4.99218e-05
-3.59032e-05
-5.97271e-05
-2.51287e-05
-6.35236e-05
-1.35927e-05
-5.84029e-05
-4.08297e-06
-4.23605e-05
-1.61105e-05
-2.23019e-06
1.48548e-05
-7.17485e-06
3.55451e-05
-1.33276e-05
4.80152e-05
-1.96909e-05
5.39445e-05
-2.57334e-05
5.50427e-05
-3.12371e-05
5.26301e-05
-3.61589e-05
4.75828e-05
-4.05308e-05
4.04079e-05
-4.43884e-05
3.13511e-05
-4.77175e-05
2.05053e-05
-5.04071e-05
7.91287e-06
-5.22053e-05
-6.3281e-06
-5.26836e-05
-2.19335e-05
-5.123e-05
-3.82543e-05
-4.71226e-05
-5.40292e-05
-3.97605e-05
-6.70893e-05
-2.91407e-05
-7.41433e-05
-1.65684e-05
-7.09752e-05
-5.26266e-06
-5.36662e-05
-2.13732e-05
-2.52238e-06
1.73772e-05
-7.77541e-06
4.07982e-05
-1.38585e-05
5.40982e-05
-1.96743e-05
5.97604e-05
-2.47755e-05
6.01438e-05
-2.90957e-05
5.69503e-05
-3.27554e-05
5.12425e-05
-3.59432e-05
4.35957e-05
-3.88432e-05
3.42511e-05
-4.15838e-05
2.32459e-05
-4.41906e-05
1.05196e-05
-4.653e-05
-3.98872e-06
-4.82422e-05
-2.02212e-05
-4.86754e-05
-3.78211e-05
-4.68732e-05
-5.58314e-05
-4.17277e-05
-7.22348e-05
-3.24805e-05
-8.33905e-05
-1.97307e-05
-8.3725e-05
-6.75822e-06
-6.66387e-05
-2.81314e-05
-3.09001e-06
2.04672e-05
-8.81546e-06
4.65236e-05
-1.4642e-05
5.99248e-05
-1.94217e-05
6.454e-05
-2.29123e-05
6.36344e-05
-2.52996e-05
5.93376e-05
-2.69315e-05
5.28744e-05
-2.81888e-05
4.4853e-05
-2.94244e-05
3.54867e-05
-3.09285e-05
2.475e-05
-3.28943e-05
1.24854e-05
-3.53638e-05
-1.51915e-06
-3.81422e-05
-1.74428e-05
-4.06713e-05
-3.52921e-05
-4.19005e-05
-5.46021e-05
-4.02701e-05
-7.38652e-05
-3.4082e-05
-8.95785e-05
-2.26712e-05
-9.51359e-05
-8.61395e-06
-8.0696e-05
-3.67454e-05
-4.20027e-06
2.46674e-05
-1.0621e-05
5.29444e-05
-1.57955e-05
6.50993e-05
-1.87434e-05
6.74879e-05
-1.9671e-05
6.4562e-05
-1.91647e-05
5.88313e-05
-1.78689e-05
5.15786e-05
-1.63766e-05
4.33608e-05
-1.52034e-05
3.43135e-05
-1.47874e-05
2.4334e-05
-1.54846e-05
1.31826e-05
-1.75367e-05
5.32925e-07
-2.0989e-05
-1.39905e-05
-2.5532e-05
-3.0749e-05
-3.0255e-05
-4.98791e-05
-3.33836e-05
-7.07367e-05
-3.2304e-05
-9.06581e-05
-2.45551e-05
-0.000102885
-1.07878e-05
-9.44633e-05
-4.75331e-05
-6.24661e-06
3.0914e-05
-1.34051e-05
6.01028e-05
-1.69237e-05
6.86179e-05
-1.66374e-05
6.72016e-05
-1.36273e-05
6.15519e-05
-9.05111e-06
5.42551e-05
-3.88347e-06
4.6411e-05
1.10227e-06
3.8375e-05
5.28662e-06
3.01291e-05
8.14775e-06
2.14729e-05
9.225e-06
1.21054e-05
8.11256e-06
1.64537e-06
4.50876e-06
-1.03867e-05
-1.64543e-06
-2.45948e-05
-9.86077e-06
-4.16638e-05
-1.85927e-05
-6.20048e-05
-2.4711e-05
-8.45398e-05
-2.37495e-05
-0.000103846
-1.29142e-05
-0.000105299
-6.04473e-05
-9.56129e-06
4.04753e-05
-1.64265e-05
6.6968e-05
-1.58212e-05
6.80127e-05
-9.88919e-06
6.12695e-05
-1.12546e-06
5.27882e-05
8.70447e-06
4.44252e-05
1.84205e-05
3.66949e-05
2.72257e-05
2.95699e-05
3.4543e-05
2.28118e-05
3.98978e-05
1.61181e-05
4.28398e-05
9.16331e-06
4.29009e-05
1.58426e-06
3.95931e-05
-7.07894e-06
3.2472e-05
-1.74737e-05
2.13811e-05
-3.05728e-05
7.05421e-06
-4.76779e-05
-7.76894e-06
-6.97167e-05
-1.72132e-05
-9.44019e-05
-1.37631e-05
-0.000108749
-7.42105e-05
-1.34306e-05
5.3906e-05
-1.50808e-05
6.86182e-05
-5.09708e-06
5.8029e-05
9.81197e-06
4.63605e-05
2.58434e-05
3.67567e-05
4.12131e-05
2.90555e-05
5.50411e-05
2.2867e-05
6.68633e-05
1.77477e-05
7.63912e-05
1.32838e-05
8.33736e-05
9.13574e-06
8.75161e-05
5.02091e-06
8.84264e-05
6.7396e-07
8.55791e-05
-4.2317e-06
7.82682e-05
-1.01628e-05
6.56648e-05
-1.79695e-05
4.7189e-05
-2.92021e-05
2.37947e-05
-4.63224e-05
7.10993e-07
-7.13182e-05
-1.02175e-05
-9.78203e-05
-8.4428e-05
-9.40931e-06
6.33153e-05
8.82285e-06
5.0386e-05
3.51832e-05
3.16686e-05
6.00394e-05
2.15043e-05
8.14877e-05
1.53084e-05
9.94574e-05
1.10859e-05
0.000114207
8.11737e-06
0.00012602
5.93443e-06
0.000135102
4.20228e-06
0.000141536
2.70154e-06
0.000145272
1.28485e-06
0.000146103
-1.57173e-07
0.000143638
-1.7669e-06
0.000137176
-3.70048e-06
0.000125545
-6.33841e-06
0.000106895
-1.05526e-05
7.90778e-05
-1.85048e-05
4.22933e-05
-3.45337e-05
6.89774e-06
-6.24247e-05
-7.75302e-05
6.33153e-05
0.000113701
0.00014537
0.000166874
0.000182183
0.000193269
0.000201386
0.00020732
0.000211523
0.000214224
0.000215509
0.000215352
0.000213585
0.000209884
0.000203546
0.000192993
0.000174489
0.000139955
7.75302e-05
)
;

boundaryField
{
    movingWall
    {
        type            calculated;
        value           uniform 0;
    }
    fixedWalls
    {
        type            calculated;
        value           uniform 0;
    }
    frontAndBack
    {
        type            empty;
        value           nonuniform List<scalar> 0();
    }
}


// ************************************************************************* //
