/*--------------------------------*- C++ -*----------------------------------*\
  =========                 |
  \\      /  F ield         | OpenFOAM: The Open Source CFD Toolbox
   \\    /   O peration     | Website:  https://openfoam.org
    \\  /    A nd           | Version:  8
     \\/     M anipulation  |
\*---------------------------------------------------------------------------*/
FoamFile
{
    version     2.0;
    format      ascii;
    class       volVectorField;
    location    "1";
    object      U;
}
// * * * * * * * * * * * * * * * * * * * * * * * * * * * * * * * * * * * * * //

dimensions      [0 1 -1 0 0 0 0];

internalField   nonuniform List<vector> 
400
(
(0.00120385 -0.00120768 0)
(0.00040164 0.000672978 0)
(-0.00645022 0.0028672 0)
(-0.0179661 0.00434014 0)
(-0.0321706 0.00506884 0)
(-0.0472916 0.00518504 0)
(-0.0618241 0.00480558 0)
(-0.0744861 0.00400704 0)
(-0.0841642 0.00283714 0)
(-0.089901 0.00134546 0)
(-0.090954 -0.000383528 0)
(-0.0869179 -0.00220692 0)
(-0.0778756 -0.00391607 0)
(-0.0645331 -0.0052523 0)
(-0.0482834 -0.00594549 0)
(-0.0311463 -0.00577279 0)
(-0.0155453 -0.00462839 0)
(-0.00390931 -0.00259419 0)
(0.00189151 -8.67437e-05 0)
(0.00157697 0.00152424 0)
(-0.00062303 -0.000512088 0)
(-0.00896241 0.00883859 0)
(-0.0300523 0.018401 0)
(-0.0603774 0.0249824 0)
(-0.0959688 0.0282355 0)
(-0.133153 0.0284661 0)
(-0.168517 0.0260707 0)
(-0.199009 0.0213955 0)
(-0.221978 0.0147489 0)
(-0.235227 0.0064985 0)
(-0.237166 -0.00281638 0)
(-0.227054 -0.012408 0)
(-0.205273 -0.0212325 0)
(-0.173543 -0.0280736 0)
(-0.134998 -0.0317241 0)
(-0.0940081 -0.0312503 0)
(-0.0556631 -0.026302 0)
(-0.0249182 -0.0174109 0)
(-0.00569965 -0.0064147 0)
(0.000312376 0.0020825 0)
(-0.00307497 0.00649649 0)
(-0.0201028 0.0303273 0)
(-0.055571 0.052069 0)
(-0.102977 0.0668932 0)
(-0.156638 0.0739869 0)
(-0.211671 0.0737781 0)
(-0.263449 0.0670259 0)
(-0.307762 0.054525 0)
(-0.340949 0.0371057 0)
(-0.360005 0.0158019 0)
(-0.362792 -0.00794458 0)
(-0.348343 -0.0321499 0)
(-0.317188 -0.0542981 0)
(-0.27162 -0.0715415 0)
(-0.215799 -0.0811111 0)
(-0.155546 -0.0809097 0)
(-0.0976969 -0.0702052 0)
(-0.0490393 -0.0502731 0)
(-0.0155779 -0.0250288 0)
(-0.00167166 -0.00260534 0)
(-0.00527125 0.0195474 0)
(-0.0305646 0.0642265 0)
(-0.0798657 0.101412 0)
(-0.143233 0.125936 0)
(-0.213183 0.137 0)
(-0.283858 0.135355 0)
(-0.349796 0.122236 0)
(-0.40604 0.0989951 0)
(-0.448267 0.0671203 0)
(-0.472908 0.0284878 0)
(-0.477369 -0.0143402 0)
(-0.460365 -0.0579187 0)
(-0.422293 -0.0979393 0)
(-0.365583 -0.129545 0)
(-0.294903 -0.147981 0)
(-0.217064 -0.149563 0)
(-0.140397 -0.132828 0)
(-0.0736099 -0.0995908 0)
(-0.0253367 -0.0557485 0)
(-0.00346064 -0.0125718 0)
(-0.00717198 0.037963 0)
(-0.0400159 0.109518 0)
(-0.102232 0.165015 0)
(-0.180458 0.200176 0)
(-0.2654 0.214944 0)
(-0.350351 0.210776 0)
(-0.429253 0.189577 0)
(-0.496666 0.15335 0)
(-0.547843 0.104291 0)
(-0.578777 0.0451515 0)
(-0.586404 -0.0203506 0)
(-0.56893 -0.0872408 0)
(-0.526272 -0.149273 0)
(-0.460542 -0.199306 0)
(-0.376458 -0.230159 0)
(-0.281506 -0.235964 0)
(-0.185486 -0.213863 0)
(-0.0993996 -0.165626 0)
(-0.0352282 -0.0987547 0)
(-0.00510957 -0.0275212 0)
(-0.00883489 0.0611503 0)
(-0.0484903 0.165297 0)
(-0.122529 0.241922 0)
(-0.2144 0.288635 0)
(-0.313114 0.306865 0)
(-0.411236 0.299249 0)
(-0.502305 0.268612 0)
(-0.580622 0.217699 0)
(-0.641191 0.1494 0)
(-0.679661 0.0672559 0)
(-0.692443 -0.0239723 0)
(-0.677023 -0.117868 0)
(-0.632459 -0.206223 0)
(-0.560037 -0.279378 0)
(-0.464002 -0.327192 0)
(-0.352132 -0.340767 0)
(-0.235646 -0.31481 0)
(-0.128259 -0.250084 0)
(-0.0461995 -0.155174 0)
(-0.00687236 -0.0476203 0)
(-0.0103001 0.0885858 0)
(-0.0560323 0.230559 0)
(-0.14067 0.330951 0)
(-0.244774 0.390098 0)
(-0.355827 0.411645 0)
(-0.465836 0.399918 0)
(-0.568147 0.358939 0)
(-0.657024 0.292282 0)
(-0.727424 0.203455 0)
(-0.77477 0.0965982 0)
(-0.794947 -0.0227485 0)
(-0.784545 -0.146981 0)
(-0.741395 -0.266068 0)
(-0.665401 -0.367692 0)
(-0.559662 -0.438189 0)
(-0.431621 -0.464548 0)
(-0.293608 -0.437556 0)
(-0.162348 -0.355473 0)
(-0.0594045 -0.227097 0)
(-0.00904691 -0.0736566 0)
(-0.0115874 0.119774 0)
(-0.0626508 0.304214 0)
(-0.15652 0.430675 0)
(-0.271123 0.502982 0)
(-0.392615 0.527725 0)
(-0.512647 0.511458 0)
(-0.624628 0.459708 0)
(-0.723069 0.376956 0)
(-0.803146 0.267211 0)
(-0.860275 0.134927 0)
(-0.889926 -0.0139802 0)
(-0.887749 -0.171169 0)
(-0.850066 -0.325142 0)
(-0.774833 -0.461006 0)
(-0.663154 -0.561107 0)
(-0.521152 -0.607113 0)
(-0.361466 -0.583909 0)
(-0.203738 -0.484958 0)
(-0.0760711 -0.317649 0)
(-0.0119614 -0.107094 0)
(-0.012717 0.154226 0)
(-0.0683738 0.385096 0)
(-0.16996 0.539409 0)
(-0.292912 0.625224 0)
(-0.422223 0.652864 0)
(-0.549441 0.631713 0)
(-0.668365 0.569149 0)
(-0.774115 0.470652 0)
(-0.862467 0.3406 0)
(-0.929186 0.183413 0)
(-0.969631 0.00485805 0)
(-0.978675 -0.186633 0)
(-0.951051 -0.378756 0)
(-0.882307 -0.554472 0)
(-0.770597 -0.692015 0)
(-0.619323 -0.766598 0)
(-0.439913 -0.754802 0)
(-0.254074 -0.641915 0)
(-0.0974595 -0.430897 0)
(-0.0159979 -0.1501 0)
(-0.0137568 0.191494 0)
(-0.0733918 0.47202 0)
(-0.181118 0.65518 0)
(-0.309777 0.754111 0)
(-0.443328 0.783822 0)
(-0.573536 0.757243 0)
(-0.695008 0.684009 0)
(-0.803947 0.570733 0)
(-0.897224 0.422032 0)
(-0.971479 0.24194 0)
(-1.02248 0.035477 0)
(-1.0448 -0.18966 0)
(-1.03181 -0.421343 0)
(-0.976493 -0.641343 0)
(-0.873179 -0.824272 0)
(-0.720827 -0.938246 0)
(-0.527264 -0.948997 0)
(-0.314139 -0.829009 0)
(-0.124849 -0.57154 0)
(-0.021644 -0.205596 0)
(-0.0149022 0.231324 0)
(-0.0782963 0.563965 0)
(-0.190717 0.775766 0)
(-0.321915 0.886131 0)
(-0.454917 0.916042 0)
(-0.582161 0.882872 0)
(-0.699636 0.799001 0)
(-0.805213 0.672337 0)
(-0.897469 0.507658 0)
(-0.974584 0.308289 0)
(-1.03348 0.077919 0)
(-1.06919 -0.177406 0)
(-1.07447 -0.447018 0)
(-1.04003 -0.71305 0)
(-0.955924 -0.947922 0)
(-0.814953 -1.11306 0)
(-0.618128 -1.16132 0)
(-0.383159 -1.04671 0)
(-0.15949 -0.74431 0)
(-0.0295735 -0.277341 0)
(-0.0166124 0.273992 0)
(-0.0844381 0.660447 0)
(-0.200526 0.898812 0)
(-0.33048 1.01681 0)
(-0.45659 1.04331 0)
(-0.572731 1.00127 0)
(-0.677081 0.906321 0)
(-0.769899 0.767845 0)
(-0.852145 0.590727 0)
(-0.924262 0.377355 0)
(-0.985193 0.129612 0)
(-1.03148 -0.148967 0)
(-1.05643 -0.4506 0)
(-1.04952 -0.759885 0)
(-0.996933 -1.04961 0)
(-0.884111 -1.27661 0)
(-0.701715 -1.3805 0)
(-0.45767 -1.29106 0)
(-0.202423 -0.952896 0)
(-0.0407576 -0.370091 0)
(-0.0198509 0.320952 0)
(-0.0944439 0.762091 0)
(-0.213815 1.02188 0)
(-0.337738 1.1404 0)
(-0.448416 1.15732 0)
(-0.542556 1.1025 0)
(-0.621693 0.995295 0)
(-0.689335 0.846572 0)
(-0.749482 0.66125 0)
(-0.805479 0.440647 0)
(-0.859078 0.18458 0)
(-0.909456 -0.10653 0)
(-0.951971 -0.429065 0)
(-0.976724 -0.772432 0)
(-0.967554 -1.11342 0)
(-0.902794 -1.40859 0)
(-0.759898 -1.587 0)
(-0.529742 -1.55055 0)
(-0.253971 -1.19799 0)
(-0.0565854 -0.489785 0)
(-0.0265031 0.375977 0)
(-0.112899 0.871276 0)
(-0.235465 1.14214 0)
(-0.346276 1.24906 0)
(-0.429434 1.24684 0)
(-0.487 1.17353 0)
(-0.525549 1.05218 0)
(-0.552766 0.894835 0)
(-0.576196 0.706192 0)
(-0.602415 0.486397 0)
(-0.636423 0.233208 0)
(-0.680854 -0.0562011 0)
(-0.734621 -0.383101 0)
(-0.790775 -0.743723 0)
(-0.833803 -1.12296 0)
(-0.837376 -1.48366 0)
(-0.765224 -1.75149 0)
(-0.584293 -1.80224 0)
(-0.312394 -1.47379 0)
(-0.0788402 -0.643475 0)
(-0.040003 0.447037 0)
(-0.1469 0.99237 0)
(-0.270635 1.25483 0)
(-0.355517 1.33101 0)
(-0.392783 1.29633 0)
(-0.394135 1.1975 0)
(-0.37329 1.06021 0)
(-0.342869 0.896636 0)
(-0.313997 0.710545 0)
(-0.296209 0.50074 0)
(-0.297492 0.263152 0)
(-0.324024 -0.00783674 0)
(-0.379144 -0.31815 0)
(-0.461077 -0.671692 0)
(-0.558942 -1.06492 0)
(-0.646974 -1.47466 0)
(-0.679008 -1.83541 0)
(-0.594967 -2.00797 0)
(-0.370478 -1.76233 0)
(-0.108897 -0.838358 0)
(-0.0657092 0.549433 0)
(-0.204731 1.13005 0)
(-0.31833 1.34891 0)
(-0.351026 1.36649 0)
(-0.313252 1.28357 0)
(-0.232416 1.15314 0)
(-0.130992 1.00047 0)
(-0.0262698 0.835517 0)
(0.0680737 0.659849 0)
(0.140841 0.470538 0)
(0.182348 0.262062 0)
(0.183898 0.0270163 0)
(0.138098 -0.243766 0)
(0.0404635 -0.560772 0)
(-0.106562 -0.933042 0)
(-0.28524 -1.35795 0)
(-0.449396 -1.79455 0)
(-0.517704 -2.11247 0)
(-0.407716 -2.02656 0)
(-0.144197 -1.0806 0)
(-0.108531 0.712067 0)
(-0.286037 1.28063 0)
(-0.348914 1.39343 0)
(-0.276067 1.31789 0)
(-0.119724 1.17498 0)
(0.0729696 1.01416 0)
(0.272883 0.85383 0)
(0.461223 0.698051 0)
(0.624877 0.544472 0)
(0.753756 0.388035 0)
(0.838908 0.222298 0)
(0.871307 0.0394676 0)
(0.841369 -0.170464 0)
(0.739262 -0.421187 0)
(0.55728 -0.73121 0)
(0.297764 -1.11987 0)
(-0.00902029 -1.58539 0)
(-0.281495 -2.04285 0)
(-0.375997 -2.20018 0)
(-0.167757 -1.3735 0)
(-0.155402 0.978339 0)
(-0.340034 1.40028 0)
(-0.237053 1.30628 0)
(0.0335012 1.11461 0)
(0.355053 0.92364 0)
(0.674797 0.754207 0)
(0.969756 0.608568 0)
(1.22804 0.48182 0)
(1.44283 0.367037 0)
(1.6092 0.257446 0)
(1.72201 0.146693 0)
(1.77463 0.0282157 0)
(1.75813 -0.106065 0)
(1.6603 -0.268152 0)
(1.46525 -0.478141 0)
(1.15674 -0.768779 0)
(0.731121 -1.1805 0)
(0.22814 -1.7131 0)
(-0.173243 -2.15913 0)
(-0.118892 -1.67471 0)
(-0.0475194 1.26933 0)
(-0.0719864 1.31671 0)
(0.411478 0.968852 0)
(0.958201 0.709469 0)
(1.42948 0.529282 0)
(1.82307 0.398373 0)
(2.14914 0.301101 0)
(2.41403 0.226102 0)
(2.62251 0.164558 0)
(2.7776 0.110091 0)
(2.87981 0.0579888 0)
(2.92665 0.00427394 0)
(2.91244 -0.0552941 0)
(2.82667 -0.127344 0)
(2.65153 -0.224361 0)
(2.35812 -0.373243 0)
(1.90156 -0.630309 0)
(1.22437 -1.07907 0)
(0.452754 -1.68831 0)
(0.217459 -1.70154 0)
(1.43812 0.707126 0)
(1.83552 0.626513 0)
(2.56311 0.398234 0)
(3.13713 0.251637 0)
(3.5115 0.164234 0)
(3.76866 0.109414 0)
(3.9562 0.0739906 0)
(4.09455 0.0502292 0)
(4.19468 0.0331151 0)
(4.26304 0.0195183 0)
(4.30269 0.00749003 0)
(4.31417 -0.00430759 0)
(4.29561 -0.0169533 0)
(4.24224 -0.0321698 0)
(4.14427 -0.0531731 0)
(3.98054 -0.0879727 0)
(3.70184 -0.15834 0)
(3.17383 -0.316125 0)
(2.29915 -0.622674 0)
(1.66799 -0.779753 0)
)
;

boundaryField
{
    movingWall
    {
        type            fixedValue;
        value           uniform (5.07334 0 0);
    }
    fixedWalls
    {
        type            noSlip;
    }
    frontAndBack
    {
        type            empty;
    }
}


// ************************************************************************* //
