/*--------------------------------*- C++ -*----------------------------------*\
  =========                 |
  \\      /  F ield         | OpenFOAM: The Open Source CFD Toolbox
   \\    /   O peration     | Website:  https://openfoam.org
    \\  /    A nd           | Version:  9
     \\/     M anipulation  |
\*---------------------------------------------------------------------------*/
FoamFile
{
    format      ascii;
    class       volVectorField;
    location    "0.025";
    object      U;
}
// * * * * * * * * * * * * * * * * * * * * * * * * * * * * * * * * * * * * * //

dimensions      [0 1 -1 0 0 0 0];

internalField   nonuniform List<vector> 
40
(
(-0.43764 -0.7715 0)
(-0.328464 -0.850355 0)
(-0.178453 -0.786894 0)
(-0.0480797 -0.413089 0)
(-0.493432 -0.482718 0)
(-0.490693 -0.667813 0)
(-0.456407 -0.854614 0)
(-0.368846 -0.983308 0)
(-0.221239 -0.956658 0)
(-0.0644353 -0.53053 0)
(-0.336467 -0.468495 0)
(-0.375643 -0.668754 0)
(-0.396712 -0.893102 0)
(-0.367986 -1.08804 0)
(-0.255281 -1.13048 0)
(-0.0823378 -0.680078 0)
(-0.00403437 -0.406943 0)
(-0.0953687 -0.606093 0)
(-0.195994 -0.855037 0)
(-0.26938 -1.11803 0)
(-0.250639 -1.27148 0)
(-0.0898335 -0.860523 0)
(0.564293 -0.298308 0)
(0.42093 -0.466015 0)
(0.22879 -0.701919 0)
(0.00721161 -1.00884 0)
(-0.150538 -1.30975 0)
(-0.0533689 -1.06847 0)
(1.44667 -0.154534 0)
(1.27284 -0.255795 0)
(1.01086 -0.420868 0)
(0.624694 -0.693392 0)
(0.201809 -1.09894 0)
(0.145548 -1.132 0)
(2.78734 -0.0383253 0)
(2.68252 -0.0670292 0)
(2.48426 -0.118338 0)
(2.1224 -0.219876 0)
(1.55691 -0.421191 0)
(1.17602 -0.541737 0)
)
;

boundaryField
{
    movingWall
    {
        type            fixedValue;
        value           uniform (3.72504 0 0);
    }
    fixedWalls
    {
        type            noSlip;
    }
    frontAndBack
    {
        type            empty;
    }
    procBoundary9to6
    {
        type            processor;
        value           nonuniform List<vector> 6((-0.486433 -0.327506 0) (-0.29774 -0.306915 0) (0.0679882 -0.256457 0) (0.667444 -0.178075 0) (1.55985 -0.0866119 0) (2.85773 -0.0193518 0));
    }
    procBoundary9to8
    {
        type            processor;
        value           nonuniform List<vector> 7((-0.393632 -0.675663 0) (-0.279009 -0.718814 0) (-0.141924 -0.64176 0) (-0.0361902 -0.324372 0) (-0.539272 -0.468087 0) (-0.504244 -0.62553 0) (-0.504244 -0.62553 0));
    }
}


// ************************************************************************* //
