/*--------------------------------*- C++ -*----------------------------------*\
  =========                 |
  \\      /  F ield         | OpenFOAM: The Open Source CFD Toolbox
   \\    /   O peration     | Website:  https://openfoam.org
    \\  /    A nd           | Version:  9
     \\/     M anipulation  |
\*---------------------------------------------------------------------------*/
FoamFile
{
    format      ascii;
    class       volScalarField;
    location    "0.1";
    object      p;
}
// * * * * * * * * * * * * * * * * * * * * * * * * * * * * * * * * * * * * * //

dimensions      [0 2 -2 0 0 0 0];

internalField   nonuniform List<scalar> 
40
(
-0.514355
-0.504737
-0.487452
-0.463991
-0.435128
-0.516736
-0.506111
-0.488831
-0.465806
-0.437937
-0.516829
-0.506043
-0.49001
-0.469371
-0.444282
-0.513066
-0.504029
-0.490956
-0.474463
-0.453511
-0.505243
-0.500782
-0.492766
-0.481805
-0.465611
-0.496088
-0.499026
-0.497895
-0.493377
-0.482093
-0.490469
-0.502273
-0.509201
-0.511653
-0.505339
-0.491596
-0.510338
-0.525978
-0.536865
-0.536473
)
;

boundaryField
{
    movingWall
    {
        type            zeroGradient;
    }
    fixedWalls
    {
        type            zeroGradient;
    }
    frontAndBack
    {
        type            empty;
    }
    procBoundary2to0
    {
        type            processor;
        value           nonuniform List<scalar> 8(-0.502388 -0.506242 -0.509505 -0.508934 -0.504038 -0.498109 -0.497347 -0.50775);
    }
    procBoundary2to3
    {
        type            processor;
        value           nonuniform List<scalar> 5(-0.534845 -0.54641 -0.561007 -0.575327 -0.58132);
    }
    procBoundary2to5
    {
        type            processor;
        value           nonuniform List<scalar> 8(-0.405673 -0.408873 -0.417658 -0.430719 -0.447668 -0.46915 -0.497193 -0.534906);
    }
}


// ************************************************************************* //
