/*--------------------------------*- C++ -*----------------------------------*\
  =========                 |
  \\      /  F ield         | OpenFOAM: The Open Source CFD Toolbox
   \\    /   O peration     | Website:  https://openfoam.org
    \\  /    A nd           | Version:  9
     \\/     M anipulation  |
\*---------------------------------------------------------------------------*/
FoamFile
{
    format      ascii;
    class       surfaceScalarField;
    location    "0.05";
    object      phi;
}
// * * * * * * * * * * * * * * * * * * * * * * * * * * * * * * * * * * * * * //

dimensions      [0 3 -1 0 0 0 0];

internalField   nonuniform List<scalar> 
66
(
-1.81046e-05
-1.70937e-05
-1.90661e-05
-2.15014e-05
-2.14709e-05
-1.62181e-05
-2.43493e-05
-1.05573e-05
-2.46873e-05
-5.30531e-06
-2.1776e-05
-1.46339e-06
-1.52338e-05
-5.51191e-06
-2.52954e-05
-2.61023e-05
-1.945e-05
-3.01947e-05
-1.29195e-05
-3.12178e-05
-6.6278e-06
-2.80677e-05
-1.87e-06
-1.99916e-05
-7.38191e-06
-2.93392e-05
-3.07953e-05
-2.30769e-05
-3.64569e-05
-1.57153e-05
-3.85794e-05
-8.2793e-06
-3.55037e-05
-2.40752e-06
-2.58634e-05
-9.78943e-06
-3.3317e-05
-3.52581e-05
-2.69268e-05
-4.28472e-05
-1.89052e-05
-4.6601e-05
-1.03007e-05
-4.41082e-05
-3.11594e-06
-3.30482e-05
-1.29054e-05
-3.66244e-05
-3.90326e-05
-3.06013e-05
-4.88703e-05
-2.23303e-05
-5.48719e-05
-1.27092e-05
-5.37293e-05
-4.05046e-06
-4.1707e-05
-1.69558e-05
-3.82516e-05
-4.1502e-05
-3.33799e-05
-5.3742e-05
-2.56205e-05
-1.54521e-05
-5.28537e-06
-3.67266e-05
)
;

boundaryField
{
    movingWall
    {
        type            calculated;
        value           nonuniform List<scalar> 0();
    }
    fixedWalls
    {
        type            calculated;
        value           uniform 0;
    }
    frontAndBack
    {
        type            empty;
        value           nonuniform List<scalar> 0();
    }
    procBoundary8to5
    {
        type            processor;
        value           nonuniform List<scalar> 4(2.21053e-05 2.58786e-05 2.99268e-05 3.40322e-05);
    }
    procBoundary8to6
    {
        type            processor;
        value           nonuniform List<scalar> 4(3.77797e-05 4.03989e-05 4.0721e-05 3.71701e-05);
    }
    procBoundary8to7
    {
        type            processor;
        value           nonuniform List<scalar> 7(1.3093e-05 1.4416e-05 -1.34545e-05 1.90265e-05 1.6524e-05 1.13919e-05 4.04852e-06);
    }
    procBoundary8to9
    {
        type            processor;
        value           nonuniform List<scalar> 7(-6.26313e-05 -6.38977e-05 -5.18737e-05 -2.22412e-05 -4.19455e-05 -3.40531e-05 -5.64154e-05);
    }
}


// ************************************************************************* //
