/*--------------------------------*- C++ -*----------------------------------*\
  =========                 |
  \\      /  F ield         | OpenFOAM: The Open Source CFD Toolbox
   \\    /   O peration     | Website:  https://openfoam.org
    \\  /    A nd           | Version:  9
     \\/     M anipulation  |
\*---------------------------------------------------------------------------*/
FoamFile
{
    format      ascii;
    class       surfaceScalarField;
    location    "0.075";
    object      phi;
}
// * * * * * * * * * * * * * * * * * * * * * * * * * * * * * * * * * * * * * //

dimensions      [0 3 -1 0 0 0 0];

internalField   nonuniform List<scalar> 
66
(
-4.41012e-05
3.84185e-06
-4.44677e-05
-6.45063e-06
-4.35471e-05
-1.73725e-05
-2.84755e-05
-4.32175e-05
5.3758e-06
-4.39885e-05
-5.67961e-06
-4.37478e-05
-1.76131e-05
-3.00914e-05
-3.91249e-05
6.79083e-06
-4.02004e-05
-4.60411e-06
-4.07178e-05
-1.70957e-05
-3.05134e-05
-3.07369e-05
7.74719e-06
-3.19084e-05
-3.43264e-06
-3.31675e-05
-1.58367e-05
-2.9507e-05
-1.68553e-05
7.86124e-06
-1.78537e-05
-2.43422e-06
-1.9732e-05
-1.39584e-05
-2.69964e-05
3.93079e-06
6.88689e-06
3.32032e-06
-1.82375e-06
9.84631e-07
-1.16227e-05
-2.29689e-05
3.33177e-05
4.86534e-06
3.31094e-05
-1.6154e-06
3.0399e-05
-8.91236e-06
-1.75525e-05
7.31375e-05
2.37448e-06
7.30172e-05
-1.49507e-06
6.98965e-05
-5.79166e-06
-1.09993e-05
0.000125223
4.61704e-07
0.000124628
-8.99711e-07
0.000121201
-2.36443e-06
-4.16425e-06
0.000192695
0.000191796
0.000189431
)
;

boundaryField
{
    movingWall
    {
        type            calculated;
        value           uniform 0;
    }
    fixedWalls
    {
        type            calculated;
        value           nonuniform List<scalar> 0();
    }
    frontAndBack
    {
        type            empty;
        value           nonuniform List<scalar> 0();
    }
    procBoundary6to3
    {
        type            processor;
        value           nonuniform List<scalar> 5(4.2698e-05 4.16835e-05 3.77099e-05 2.97806e-05 1.67412e-05);
    }
    procBoundary6to4
    {
        type            processor;
        value           nonuniform List<scalar> 5(-2.95645e-06 -3.12962e-05 -7.06467e-05 -0.00012331 -0.000192234);
    }
    procBoundary6to5
    {
        type            processor;
        value           nonuniform List<scalar> 4(-2.43863e-06 6.81718e-06 1.64519e-05 2.59694e-05);
    }
    procBoundary6to8
    {
        type            processor;
        value           nonuniform List<scalar> 4(-4.1041e-05 -4.21319e-05 -4.02958e-05 -3.41739e-05);
    }
    procBoundary6to9
    {
        type            processor;
        value           nonuniform List<scalar> 6(-2.22426e-05 -3.04287e-06 2.49827e-05 6.33433e-05 0.000114365 0.000185267);
    }
}


// ************************************************************************* //
