/*--------------------------------*- C++ -*----------------------------------*\
  =========                 |
  \\      /  F ield         | OpenFOAM: The Open Source CFD Toolbox
   \\    /   O peration     | Website:  https://openfoam.org
    \\  /    A nd           | Version:  8
     \\/     M anipulation  |
\*---------------------------------------------------------------------------*/
FoamFile
{
    version     2.0;
    format      ascii;
    class       volScalarField;
    location    "1";
    object      p;
}
// * * * * * * * * * * * * * * * * * * * * * * * * * * * * * * * * * * * * * //

dimensions      [0 2 -2 0 0 0 0];

internalField   nonuniform List<scalar> 
400
(
-0.0991809
-0.19817
-0.251318
-0.276696
-0.280331
-0.268116
-0.243176
-0.206098
-0.159526
-0.106453
-0.0491107
0.0103162
0.0690614
0.123982
0.172206
0.211684
0.241421
0.261405
0.272416
0.276078
-0.198557
-0.239033
-0.268562
-0.283712
-0.282698
-0.267844
-0.241502
-0.204364
-0.158618
-0.106619
-0.0501858
0.00865878
0.0671339
0.121965
0.170084
0.20927
0.238455
0.257564
0.266962
0.26661
-0.250255
-0.268464
-0.28027
-0.284673
-0.277344
-0.259996
-0.233926
-0.198829
-0.156251
-0.107972
-0.0551377
0.000789707
0.0572256
0.110666
0.157565
0.195273
0.222607
0.239712
0.247152
0.2454
-0.273262
-0.280762
-0.280767
-0.276572
-0.263947
-0.244819
-0.220072
-0.188575
-0.151247
-0.10925
-0.0628215
-0.0124814
0.0396823
0.0900327
0.13447
0.169783
0.194539
0.209004
0.21409
0.210836
-0.278089
-0.279121
-0.271673
-0.26108
-0.244121
-0.223572
-0.200487
-0.173167
-0.142045
-0.107963
-0.0703684
-0.0286062
0.0161549
0.0605314
0.100144
0.131394
0.152616
0.163988
0.16672
0.162248
-0.270402
-0.267696
-0.255786
-0.241105
-0.221168
-0.199792
-0.178693
-0.155804
-0.131054
-0.105488
-0.0783518
-0.0478705
-0.0138047
0.0214072
0.053683
0.0793305
0.0964069
0.104702
0.10567
0.100924
-0.255828
-0.251891
-0.238321
-0.222276
-0.201307
-0.180019
-0.161227
-0.142817
-0.123722
-0.105644
-0.0887686
-0.0708625
-0.0500108
-0.0268293
-0.00416571
0.0147549
0.0277184
0.0337093
0.0341248
0.0304037
-0.239697
-0.236855
-0.224562
-0.21035
-0.191043
-0.17132
-0.155371
-0.141983
-0.127932
-0.115254
-0.106411
-0.10012
-0.0931042
-0.0834163
-0.0715634
-0.0595144
-0.049656
-0.0443239
-0.0428598
-0.0446124
-0.224438
-0.224952
-0.216946
-0.20827
-0.194501
-0.179161
-0.167213
-0.160771
-0.152997
-0.144375
-0.140242
-0.142177
-0.146785
-0.14949
-0.147594
-0.140963
-0.131934
-0.124728
-0.120551
-0.120541
-0.208281
-0.213841
-0.212804
-0.213484
-0.210375
-0.204595
-0.198722
-0.202526
-0.205413
-0.202818
-0.201551
-0.20746
-0.219055
-0.230184
-0.23488
-0.230325
-0.218465
-0.205884
-0.197176
-0.196758
-0.185087
-0.196233
-0.204694
-0.218464
-0.231786
-0.24416
-0.248133
-0.2655
-0.285372
-0.295038
-0.298968
-0.306692
-0.32038
-0.334329
-0.340418
-0.333185
-0.313729
-0.291052
-0.274717
-0.274511
-0.145689
-0.162276
-0.184367
-0.216183
-0.251004
-0.293116
-0.314465
-0.347653
-0.388595
-0.417624
-0.43278
-0.444101
-0.45735
-0.469224
-0.471581
-0.457158
-0.425375
-0.38658
-0.356059
-0.35203
-0.0812516
-0.104292
-0.148076
-0.207372
-0.266891
-0.347411
-0.398227
-0.450674
-0.511921
-0.562598
-0.594045
-0.612653
-0.625216
-0.631711
-0.626786
-0.603157
-0.556731
-0.495642
-0.439053
-0.418675
0.0129988
-0.0209286
-0.0965349
-0.19796
-0.286026
-0.398639
-0.487343
-0.567398
-0.649558
-0.721334
-0.77169
-0.799424
-0.807406
-0.801392
-0.784328
-0.751919
-0.69352
-0.607733
-0.510165
-0.452807
0.138457
0.0836018
-0.0259445
-0.174978
-0.303484
-0.425993
-0.541669
-0.658156
-0.774422
-0.877984
-0.957497
-0.999903
-0.983747
-0.941504
-0.896678
-0.852315
-0.78841
-0.684947
-0.539699
-0.425781
0.302293
0.209235
0.0779487
-0.0842751
-0.265914
-0.397415
-0.527707
-0.689911
-0.875432
-1.05223
-1.18718
-1.2404
-1.183
-1.05176
-0.917978
-0.826477
-0.753765
-0.651954
-0.480447
-0.310079
0.525177
0.382696
0.239226
0.116677
-0.0926712
-0.292269
-0.515504
-0.782956
-1.07178
-1.33374
-1.51634
-1.57705
-1.49669
-1.264
-0.954962
-0.668993
-0.483286
-0.390254
-0.265416
-0.0889021
0.837376
0.690145
0.543505
0.366777
0.0752226
-0.26994
-0.665343
-1.06756
-1.4162
-1.67892
-1.84493
-1.90877
-1.85989
-1.66514
-1.2743
-0.695522
-0.132183
0.200091
0.247543
0.314939
1.4545
1.25545
0.951689
0.481966
-0.106511
-0.645512
-1.08646
-1.4459
-1.73086
-1.94203
-2.08124
-2.14833
-2.13383
-2.00946
-1.72002
-1.17937
-0.310928
0.604532
1.10269
1.1993
2.09988
1.62298
0.830236
-0.00151281
-0.585002
-1.00278
-1.34186
-1.62776
-1.86075
-2.03865
-2.16133
-2.2275
-2.22866
-2.14438
-1.94164
-1.57538
-0.944689
0.126346
1.46161
2.18945
)
;

boundaryField
{
    movingWall
    {
        type            zeroGradient;
    }
    fixedWalls
    {
        type            zeroGradient;
    }
    frontAndBack
    {
        type            empty;
    }
}


// ************************************************************************* //
