/*--------------------------------*- C++ -*----------------------------------*\
  =========                 |
  \\      /  F ield         | OpenFOAM: The Open Source CFD Toolbox
   \\    /   O peration     | Website:  https://openfoam.org
    \\  /    A nd           | Version:  8
     \\/     M anipulation  |
\*---------------------------------------------------------------------------*/
FoamFile
{
    version     2.0;
    format      ascii;
    class       volVectorField;
    location    "1";
    object      U;
}
// * * * * * * * * * * * * * * * * * * * * * * * * * * * * * * * * * * * * * //

dimensions      [0 1 -1 0 0 0 0];

internalField   nonuniform List<vector> 
400
(
(0.00120491 -0.00120701 0)
(0.000402959 0.00067365 0)
(-0.00645078 0.00286792 0)
(-0.017969 0.00434095 0)
(-0.032176 0.00506972 0)
(-0.0472995 0.00518592 0)
(-0.0618345 0.00480642 0)
(-0.0744988 0.00400778 0)
(-0.0841787 0.00283771 0)
(-0.0899166 0.00134578 0)
(-0.09097 -0.000383527 0)
(-0.0869333 -0.00220728 0)
(-0.0778893 -0.00391678 0)
(-0.0645444 -0.00525329 0)
(-0.0482917 -0.00594662 0)
(-0.0311513 -0.00577387 0)
(-0.0155475 -0.0046292 0)
(-0.00390955 -0.00259458 0)
(0.00189208 -8.66732e-05 0)
(0.00157731 0.00152455 0)
(-0.000622631 -0.000510813 0)
(-0.00896311 0.00884117 0)
(-0.0300569 0.0184047 0)
(-0.0603875 0.0249869 0)
(-0.0959849 0.0282404 0)
(-0.133175 0.028471 0)
(-0.168545 0.0260753 0)
(-0.199044 0.0213994 0)
(-0.222017 0.0147517 0)
(-0.235268 0.00649996 0)
(-0.237207 -0.00281663 0)
(-0.227094 -0.0124101 0)
(-0.205309 -0.0212364 0)
(-0.173573 -0.0280788 0)
(-0.135021 -0.03173 0)
(-0.0940237 -0.0312561 0)
(-0.0556718 -0.0263066 0)
(-0.0249216 -0.0174137 0)
(-0.00570012 -0.00641542 0)
(0.000312576 0.0020831 0)
(-0.00307534 0.00649841 0)
(-0.020106 0.0303335 0)
(-0.0555804 0.0520786 0)
(-0.102995 0.0669049 0)
(-0.156665 0.0739996 0)
(-0.211708 0.0737908 0)
(-0.263494 0.0670376 0)
(-0.307815 0.0545349 0)
(-0.341009 0.0371128 0)
(-0.360068 0.0158053 0)
(-0.362856 -0.00794548 0)
(-0.348405 -0.0321554 0)
(-0.317244 -0.0543079 0)
(-0.271668 -0.0715548 0)
(-0.215837 -0.0811262 0)
(-0.155572 -0.0809245 0)
(-0.0977128 -0.0702176 0)
(-0.0490468 -0.0502813 0)
(-0.0155799 -0.0250323 0)
(-0.00167175 -0.00260521 0)
(-0.00527218 0.0195514 0)
(-0.0305699 0.0642386 0)
(-0.0798797 0.101431 0)
(-0.143258 0.125958 0)
(-0.21322 0.137024 0)
(-0.283907 0.135379 0)
(-0.349856 0.122258 0)
(-0.40611 0.0990131 0)
(-0.448345 0.0671331 0)
(-0.472991 0.0284939 0)
(-0.477454 -0.0143418 0)
(-0.460447 -0.0579286 0)
(-0.422368 -0.0979571 0)
(-0.365648 -0.129569 0)
(-0.294954 -0.148008 0)
(-0.217102 -0.14959 0)
(-0.14042 -0.132852 0)
(-0.0736217 -0.0996074 0)
(-0.0253404 -0.0557568 0)
(-0.00346101 -0.012573 0)
(-0.00717333 0.0379704 0)
(-0.0400231 0.109538 0)
(-0.10225 0.165044 0)
(-0.180489 0.200211 0)
(-0.265446 0.21498 0)
(-0.350411 0.210812 0)
(-0.429326 0.18961 0)
(-0.496752 0.153378 0)
(-0.547938 0.104311 0)
(-0.578879 0.0451613 0)
(-0.586508 -0.0203527 0)
(-0.569032 -0.0872555 0)
(-0.526367 -0.1493 0)
(-0.460625 -0.199343 0)
(-0.376526 -0.230202 0)
(-0.281556 -0.236007 0)
(-0.185518 -0.213901 0)
(-0.0994162 -0.165654 0)
(-0.0352337 -0.09877 0)
(-0.00511019 -0.0275245 0)
(-0.00883655 0.0611619 0)
(-0.048499 0.165327 0)
(-0.12255 0.241964 0)
(-0.214437 0.288685 0)
(-0.313167 0.306917 0)
(-0.411305 0.2993 0)
(-0.50239 0.268659 0)
(-0.580722 0.217738 0)
(-0.641302 0.149429 0)
(-0.67978 0.0672709 0)
(-0.692567 -0.0239736 0)
(-0.677146 -0.117887 0)
(-0.632575 -0.206259 0)
(-0.560141 -0.279429 0)
(-0.464089 -0.327252 0)
(-0.352197 -0.34083 0)
(-0.235689 -0.314867 0)
(-0.128282 -0.250128 0)
(-0.0462071 -0.1552 0)
(-0.00687329 -0.0476266 0)
(-0.010302 0.0886023 0)
(-0.0560419 0.2306 0)
(-0.140694 0.331008 0)
(-0.244814 0.390164 0)
(-0.355885 0.411715 0)
(-0.465913 0.399986 0)
(-0.568241 0.359002 0)
(-0.657135 0.292336 0)
(-0.727548 0.203495 0)
(-0.774905 0.0966205 0)
(-0.795088 -0.0227472 0)
(-0.784688 -0.147003 0)
(-0.741533 -0.266113 0)
(-0.665527 -0.367759 0)
(-0.559769 -0.43827 0)
(-0.431704 -0.464635 0)
(-0.293664 -0.437637 0)
(-0.162378 -0.355536 0)
(-0.059415 -0.227135 0)
(-0.00904827 -0.0736672 0)
(-0.0115893 0.119796 0)
(-0.0626611 0.304266 0)
(-0.156545 0.430748 0)
(-0.271166 0.503066 0)
(-0.392677 0.527813 0)
(-0.512728 0.511545 0)
(-0.624728 0.459789 0)
(-0.723187 0.377025 0)
(-0.803281 0.267265 0)
(-0.860423 0.134959 0)
(-0.890084 -0.0139736 0)
(-0.887912 -0.171191 0)
(-0.850226 -0.325195 0)
(-0.774984 -0.461087 0)
(-0.663286 -0.561211 0)
(-0.521257 -0.607227 0)
(-0.361539 -0.584019 0)
(-0.203778 -0.485047 0)
(-0.0760856 -0.317705 0)
(-0.0119634 -0.10711 0)
(-0.012719 0.154253 0)
(-0.0683842 0.385161 0)
(-0.169986 0.539499 0)
(-0.292955 0.625326 0)
(-0.422286 0.652972 0)
(-0.549524 0.63182 0)
(-0.668468 0.569249 0)
(-0.774238 0.47074 0)
(-0.862609 0.34067 0)
(-0.929344 0.183458 0)
(-0.969802 0.00487348 0)
(-0.978854 -0.186653 0)
(-0.951232 -0.378814 0)
(-0.88248 -0.554567 0)
(-0.770754 -0.692142 0)
(-0.619452 -0.766743 0)
(-0.440006 -0.754947 0)
(-0.254128 -0.642037 0)
(-0.0974794 -0.430976 0)
(-0.0160009 -0.150125 0)
(-0.0137587 0.191527 0)
(-0.0734018 0.472098 0)
(-0.181143 0.655286 0)
(-0.309819 0.754232 0)
(-0.44339 0.78395 0)
(-0.573617 0.75737 0)
(-0.695109 0.684129 0)
(-0.804069 0.57084 0)
(-0.897365 0.422121 0)
(-0.971639 0.242002 0)
(-1.02266 0.035505 0)
(-1.04499 -0.189673 0)
(-1.03201 -0.421402 0)
(-0.976686 -0.641449 0)
(-0.873358 -0.824421 0)
(-0.720981 -0.938424 0)
(-0.527379 -0.949183 0)
(-0.314208 -0.829172 0)
(-0.124876 -0.57165 0)
(-0.0216485 -0.205632 0)
(-0.0149039 0.231362 0)
(-0.0783057 0.564055 0)
(-0.19074 0.775888 0)
(-0.321954 0.88627 0)
(-0.454975 0.916189 0)
(-0.582237 0.883019 0)
(-0.699731 0.799141 0)
(-0.805328 0.672464 0)
(-0.897604 0.507766 0)
(-0.974738 0.308369 0)
(-1.03366 0.0779631 0)
(-1.06938 -0.177407 0)
(-1.07467 -0.447072 0)
(-1.04023 -0.713161 0)
(-0.956121 -0.948089 0)
(-0.815128 -1.11327 0)
(-0.618265 -1.16155 0)
(-0.383246 -1.04692 0)
(-0.159526 -0.744459 0)
(-0.0295801 -0.277393 0)
(-0.016614 0.274035 0)
(-0.0844466 0.660548 0)
(-0.200547 0.898948 0)
(-0.330516 1.01696 0)
(-0.456641 1.04348 0)
(-0.572799 1.00143 0)
(-0.677165 0.90648 0)
(-0.770001 0.767992 0)
(-0.852265 0.590855 0)
(-0.9244 0.377454 0)
(-0.985349 0.129675 0)
(-1.03166 -0.148953 0)
(-1.05662 -0.450644 0)
(-1.04972 -0.759995 0)
(-0.997134 -1.04979 0)
(-0.884299 -1.27685 0)
(-0.701872 -1.38077 0)
(-0.457776 -1.29133 0)
(-0.202472 -0.953093 0)
(-0.0407674 -0.370164 0)
(-0.0198525 0.321 0)
(-0.094452 0.762202 0)
(-0.213835 1.02203 0)
(-0.33777 1.14057 0)
(-0.44846 1.15749 0)
(-0.542612 1.10268 0)
(-0.621762 0.995469 0)
(-0.689416 0.846735 0)
(-0.749577 0.661395 0)
(-0.805589 0.440764 0)
(-0.859204 0.18466 0)
(-0.909599 -0.106499 0)
(-0.952132 -0.429093 0)
(-0.9769 -0.772532 0)
(-0.96774 -1.11359 0)
(-0.902979 -1.40884 0)
(-0.760064 -1.58731 0)
(-0.529865 -1.55087 0)
(-0.254033 -1.19825 0)
(-0.0565996 -0.489887 0)
(-0.0265051 0.376028 0)
(-0.112908 0.871395 0)
(-0.235485 1.1423 0)
(-0.346305 1.24924 0)
(-0.429472 1.24703 0)
(-0.487045 1.17372 0)
(-0.5256 1.05236 0)
(-0.552824 0.895008 0)
(-0.576261 0.706347 0)
(-0.602487 0.486527 0)
(-0.636505 0.233303 0)
(-0.680949 -0.0561523 0)
(-0.734732 -0.383112 0)
(-0.790904 -0.743806 0)
(-0.83395 -1.12313 0)
(-0.837536 -1.48392 0)
(-0.765382 -1.75183 0)
(-0.584424 -1.80261 0)
(-0.312469 -1.47411 0)
(-0.0788604 -0.643615 0)
(-0.0400067 0.447094 0)
(-0.146912 0.992499 0)
(-0.270658 1.255 0)
(-0.355548 1.3312 0)
(-0.392818 1.29653 0)
(-0.39417 1.19769 0)
(-0.373323 1.0604 0)
(-0.342899 0.896812 0)
(-0.314024 0.710704 0)
(-0.296234 0.500875 0)
(-0.297518 0.263255 0)
(-0.324054 -0.00777609 0)
(-0.379184 -0.318144 0)
(-0.461134 -0.671755 0)
(-0.559022 -1.06506 0)
(-0.64708 -1.4749 0)
(-0.679134 -1.83574 0)
(-0.595091 -2.00838 0)
(-0.370564 -1.76271 0)
(-0.108925 -0.838545 0)
(-0.0657165 0.5495 0)
(-0.204754 1.13019 0)
(-0.318365 1.34909 0)
(-0.351065 1.36668 0)
(-0.313287 1.28377 0)
(-0.232442 1.15332 0)
(-0.131005 1.00065 0)
(-0.0262669 0.835684 0)
(0.0680925 0.659999 0)
(0.140875 0.470667 0)
(0.182393 0.262163 0)
(0.183949 0.02708 0)
(0.138149 -0.243749 0)
(0.0405035 -0.560814 0)
(-0.106545 -0.933158 0)
(-0.285259 -1.35816 0)
(-0.449457 -1.79487 0)
(-0.517795 -2.11288 0)
(-0.407803 -2.02699 0)
(-0.144231 -1.08085 0)
(-0.108546 0.712154 0)
(-0.286076 1.28079 0)
(-0.348966 1.39362 0)
(-0.276114 1.31808 0)
(-0.119754 1.17516 0)
(0.0729639 1.01433 0)
(0.272906 0.853988 0)
(0.461277 0.698195 0)
(0.624961 0.5446 0)
(0.753869 0.388144 0)
(0.839045 0.222383 0)
(0.871462 0.0395232 0)
(0.841534 -0.170445 0)
(0.739423 -0.421214 0)
(0.557422 -0.731295 0)
(0.297867 -1.12003 0)
(-0.00897682 -1.58565 0)
(-0.281517 -2.04323 0)
(-0.37606 -2.20063 0)
(-0.167791 -1.3738 0)
(-0.155429 0.978466 0)
(-0.340095 1.40047 0)
(-0.237112 1.30646 0)
(0.0334712 1.11478 0)
(0.355064 0.923789 0)
(0.674854 0.754341 0)
(0.96986 0.608687 0)
(1.22819 0.481926 0)
(1.44302 0.367128 0)
(1.60943 0.257522 0)
(1.72228 0.146751 0)
(1.77493 0.0282528 0)
(1.75844 -0.106053 0)
(1.66061 -0.268169 0)
(1.46554 -0.478194 0)
(1.157 -0.768883 0)
(0.73131 -1.18068 0)
(0.228235 -1.7134 0)
(-0.173245 -2.15955 0)
(-0.118905 -1.67506 0)
(-0.0475443 1.26952 0)
(-0.0720288 1.3169 0)
(0.411496 0.968995 0)
(0.958294 0.709581 0)
(1.42964 0.529374 0)
(1.8233 0.398449 0)
(2.14943 0.301165 0)
(2.41437 0.226155 0)
(2.62289 0.164602 0)
(2.77803 0.110125 0)
(2.88027 0.0580137 0)
(2.92714 0.00428788 0)
(2.91294 -0.0552922 0)
(2.82717 -0.127356 0)
(2.65201 -0.224389 0)
(2.35857 -0.373293 0)
(1.90195 -0.6304 0)
(1.22465 -1.07924 0)
(0.452883 -1.68861 0)
(0.217525 -1.70187 0)
(1.43835 0.707242 0)
(1.83581 0.626615 0)
(2.56349 0.398303 0)
(3.13762 0.251684 0)
(3.51204 0.164268 0)
(3.76926 0.109438 0)
(3.95684 0.074009 0)
(4.09522 0.050243 0)
(4.19538 0.0331254 0)
(4.26375 0.0195256 0)
(4.30342 0.00749442 0)
(4.31491 -0.00430632 0)
(4.29635 -0.016955 0)
(4.24298 -0.0321748 0)
(4.14499 -0.0531818 0)
(3.98124 -0.0879859 0)
(3.7025 -0.158362 0)
(3.17441 -0.316168 0)
(2.29958 -0.622772 0)
(1.6683 -0.779889 0)
)
;

boundaryField
{
    movingWall
    {
        type            fixedValue;
        value           uniform (5.07422 0 0);
    }
    fixedWalls
    {
        type            noSlip;
    }
    frontAndBack
    {
        type            empty;
    }
}


// ************************************************************************* //
