/*--------------------------------*- C++ -*----------------------------------*\
  =========                 |
  \\      /  F ield         | OpenFOAM: The Open Source CFD Toolbox
   \\    /   O peration     | Website:  https://openfoam.org
    \\  /    A nd           | Version:  9
     \\/     M anipulation  |
\*---------------------------------------------------------------------------*/
FoamFile
{
    format      ascii;
    class       surfaceScalarField;
    location    "0.01";
    object      phi;
}
// * * * * * * * * * * * * * * * * * * * * * * * * * * * * * * * * * * * * * //

dimensions      [0 3 -1 0 0 0 0];

internalField   nonuniform List<scalar> 
67
(
-2.18752e-07
-6.07552e-08
-1.46954e-07
-7.17989e-08
-7.23823e-08
-7.45716e-08
-1.02073e-08
-6.21751e-08
1.51747e-08
-2.53821e-08
1.51747e-08
-6.59237e-07
-2.20679e-07
-4.77766e-07
-2.5327e-07
-2.91328e-07
-2.6101e-07
-1.27083e-07
-2.26421e-07
-2.38619e-08
-1.28603e-07
-8.68729e-09
-1.03086e-06
-4.55485e-07
-7.67314e-07
-5.16816e-07
-4.95219e-07
-5.33105e-07
-2.46497e-07
-4.75143e-07
-6.7817e-08
-3.07283e-07
-7.65044e-08
-1.29193e-06
-7.39913e-07
-9.72023e-07
-8.36722e-07
-6.39477e-07
-8.65652e-07
-3.29704e-07
-7.84916e-07
-9.6437e-08
-5.4055e-07
-1.72941e-07
-1.51048e-06
-1.06391e-06
-1.14407e-06
-1.20313e-06
-7.59693e-07
-1.25003e-06
-3.9739e-07
-1.14722e-06
-1.18815e-07
-8.19124e-07
-2.91757e-07
-1.73889e-06
-1.32315e-06
-8.84094e-07
-1.68909e-06
-4.66207e-07
-1.56511e-06
-1.40742e-07
-1.14459e-06
-4.32499e-07
-1.03148e-06
-5.45917e-07
-1.65046e-07
)
;

boundaryField
{
    movingWall
    {
        type            calculated;
        value           nonuniform List<scalar> 0();
    }
    fixedWalls
    {
        type            calculated;
        value           uniform 0;
    }
    frontAndBack
    {
        type            empty;
        value           nonuniform List<scalar> 0();
    }
    procBoundary7to5
    {
        type            processor;
        value           nonuniform List<scalar> 6(2.79507e-07 8.1916e-07 1.26567e-06 1.57636e-06 1.83447e-06 2.10257e-06);
    }
    procBoundary7to8
    {
        type            processor;
        value           nonuniform List<scalar> 7(-1.42758e-06 -1.61886e-06 1.53621e-06 -2.19382e-06 -2.05066e-06 -1.52546e-06 -5.97545e-07);
    }
}


// ************************************************************************* //
