/*--------------------------------*- C++ -*----------------------------------*\
  =========                 |
  \\      /  F ield         | OpenFOAM: The Open Source CFD Toolbox
   \\    /   O peration     | Website:  https://openfoam.org
    \\  /    A nd           | Version:  9
     \\/     M anipulation  |
\*---------------------------------------------------------------------------*/
FoamFile
{
    format      ascii;
    class       surfaceScalarField;
    location    "0.07";
    object      phi;
}
// * * * * * * * * * * * * * * * * * * * * * * * * * * * * * * * * * * * * * //

dimensions      [0 3 -1 0 0 0 0];

internalField   nonuniform List<scalar> 
63
(
-1.50429e-06
7.51143e-06
-5.11775e-06
1.8233e-05
-9.96012e-06
2.48694e-05
-1.53117e-05
2.82667e-05
2.91294e-05
-1.69465e-06
9.20608e-06
-5.69316e-06
2.22315e-05
-1.09541e-05
3.01304e-05
-1.66798e-05
-1.91929e-06
1.11254e-05
-6.33158e-06
2.66438e-05
3.5778e-05
-2.20572e-06
1.33311e-05
-7.06555e-06
3.15037e-05
4.17351e-05
-2.60263e-06
1.59337e-05
-7.97032e-06
3.68713e-05
4.78707e-05
-3.21718e-06
1.91509e-05
-9.17686e-06
4.2831e-05
5.39441e-05
-4.25951e-06
2.34104e-05
-1.08754e-05
4.94469e-05
5.94502e-05
-6.04168e-06
2.94521e-05
-1.31543e-05
5.65595e-05
6.32596e-05
-8.84945e-06
3.83015e-05
-1.5263e-05
6.2973e-05
6.291e-05
-1.20169e-05
5.03185e-05
-1.30499e-05
6.4006e-05
5.35608e-05
-7.66789e-06
5.79864e-05
9.76079e-06
4.65773e-05
2.91247e-05
5.79864e-05
0.000104564
)
;

boundaryField
{
    movingWall
    {
        type            calculated;
        value           uniform 0;
    }
    fixedWalls
    {
        type            calculated;
        value           uniform 0;
    }
    frontAndBack
    {
        type            empty;
        value           nonuniform List<scalar> 0();
    }
    procBoundary1to0
    {
        type            processor;
        value           nonuniform List<scalar> 5(-6.00713e-06 -1.46196e-05 -2.00271e-05 -2.2915e-05 -2.37525e-05);
    }
    procBoundary1to3
    {
        type            processor;
        value           nonuniform List<scalar> 8(-2.06886e-05 3.39924e-05 -2.23505e-05 3.48001e-05 -1.19793e-05 -1.30226e-05 -1.41059e-05 -1.52502e-05);
    }
    procBoundary1to4
    {
        type            processor;
        value           nonuniform List<scalar> 6(-1.63815e-05 -1.69637e-05 -1.49134e-05 -3.70071e-06 3.41969e-05 0.000133688);
    }
}


// ************************************************************************* //
