/*--------------------------------*- C++ -*----------------------------------*\
  =========                 |
  \\      /  F ield         | OpenFOAM: The Open Source CFD Toolbox
   \\    /   O peration     | Website:  https://openfoam.org
    \\  /    A nd           | Version:  9
     \\/     M anipulation  |
\*---------------------------------------------------------------------------*/
FoamFile
{
    format      ascii;
    class       volVectorField;
    location    "0.055";
    object      U;
}
// * * * * * * * * * * * * * * * * * * * * * * * * * * * * * * * * * * * * * //

dimensions      [0 1 -1 0 0 0 0];

internalField   nonuniform List<vector> 
40
(
(-0.806883 0.04877 0)
(-0.821136 -0.118995 0)
(-0.813304 -0.294957 0)
(-0.779308 -0.474779 0)
(-0.813709 0.071232 0)
(-0.831918 -0.113749 0)
(-0.832348 -0.311219 0)
(-0.810278 -0.518535 0)
(-0.763027 0.0950549 0)
(-0.78337 -0.101877 0)
(-0.793102 -0.31565 0)
(-0.787835 -0.544873 0)
(-0.631233 0.114896 0)
(-0.648652 -0.0851788 0)
(-0.66719 -0.305681 0)
(-0.682067 -0.548264 0)
(-0.390972 0.12457 0)
(-0.400009 -0.0675038 0)
(-0.423975 -0.281951 0)
(-0.460448 -0.524822 0)
(-0.00993106 0.11883 0)
(-0.00633828 -0.0520613 0)
(-0.0326257 -0.244553 0)
(-0.0898813 -0.469446 0)
(0.549345 0.0950432 0)
(0.56538 -0.0410793 0)
(0.538074 -0.194989 0)
(0.461906 -0.380578 0)
(1.32584 0.0567648 0)
(1.3456 -0.0351355 0)
(1.31551 -0.136996 0)
(1.22368 -0.263857 0)
(2.35624 0.0182782 0)
(2.3652 -0.0261628 0)
(2.32854 -0.07346 0)
(2.23221 -0.133773 0)
(3.69531 0.0033031 0)
(3.69208 -0.00808738 0)
(3.6609 -0.0190993 0)
(3.60136 -0.0331555 0)
)
;

boundaryField
{
    movingWall
    {
        type            fixedValue;
        value           uniform (4.50176 0 0);
    }
    fixedWalls
    {
        type            noSlip;
    }
    frontAndBack
    {
        type            empty;
    }
    procBoundary6to3
    {
        type            processor;
        value           nonuniform List<vector> 5((-0.777525 0.206391 0) (-0.783336 0.243476 0) (-0.737297 0.276977 0) (-0.616601 0.299456 0) (-0.39548 0.302407 0));
    }
    procBoundary6to4
    {
        type            processor;
        value           nonuniform List<vector> 5((-0.0379135 0.279489 0) (0.499095 0.228241 0) (1.26489 0.149973 0) (2.30497 0.0655588 0) (3.67772 0.0161934 0));
    }
    procBoundary6to5
    {
        type            processor;
        value           nonuniform List<vector> 4((-0.766351 0.0297397 0) (-0.776061 -0.118443 0) (-0.761365 -0.270755 0) (-0.718924 -0.42194 0));
    }
    procBoundary6to8
    {
        type            processor;
        value           nonuniform List<vector> 4((-0.716417 -0.645277 0) (-0.761602 -0.722772 0) (-0.761038 -0.779625 0) (-0.686689 -0.809308 0));
    }
    procBoundary6to9
    {
        type            processor;
        value           nonuniform List<vector> 6((-0.502094 -0.797051 0) (-0.172988 -0.734575 0) (0.338342 -0.611015 0) (1.06663 -0.431891 0) (2.06674 -0.219898 0) (3.50088 -0.0549969 0));
    }
}


// ************************************************************************* //
