/*--------------------------------*- C++ -*----------------------------------*\
  =========                 |
  \\      /  F ield         | OpenFOAM: The Open Source CFD Toolbox
   \\    /   O peration     | Website:  https://openfoam.org
    \\  /    A nd           | Version:  9
     \\/     M anipulation  |
\*---------------------------------------------------------------------------*/
FoamFile
{
    format      ascii;
    class       volScalarField;
    location    "0.09";
    object      p;
}
// * * * * * * * * * * * * * * * * * * * * * * * * * * * * * * * * * * * * * //

dimensions      [0 2 -2 0 0 0 0];

internalField   nonuniform List<scalar> 
40
(
-0.646855
-0.643658
-0.631571
-0.612364
-0.586983
-0.650663
-0.646058
-0.633731
-0.614796
-0.590346
-0.65321
-0.647767
-0.636285
-0.619468
-0.597808
-0.652501
-0.648069
-0.639082
-0.626109
-0.608639
-0.647929
-0.647451
-0.643095
-0.635375
-0.622754
-0.641939
-0.648456
-0.650692
-0.64921
-0.641639
-0.639245
-0.654449
-0.664651
-0.670061
-0.667658
-0.643594
-0.665478
-0.684342
-0.698125
-0.701812
)
;

boundaryField
{
    movingWall
    {
        type            zeroGradient;
    }
    fixedWalls
    {
        type            zeroGradient;
    }
    frontAndBack
    {
        type            empty;
    }
    procBoundary2to0
    {
        type            processor;
        value           nonuniform List<scalar> 8(-0.626298 -0.63231 -0.639171 -0.642847 -0.642337 -0.640667 -0.644016 -0.659186);
    }
    procBoundary2to3
    {
        type            processor;
        value           nonuniform List<scalar> 5(-0.692113 -0.705753 -0.723123 -0.740248 -0.7506);
    }
    procBoundary2to5
    {
        type            processor;
        value           nonuniform List<scalar> 8(-0.560332 -0.56402 -0.573825 -0.588365 -0.607214 -0.630989 -0.661703 -0.702426);
    }
}


// ************************************************************************* //
