/*--------------------------------*- C++ -*----------------------------------*\
  =========                 |
  \\      /  F ield         | OpenFOAM: The Open Source CFD Toolbox
   \\    /   O peration     | Website:  https://openfoam.org
    \\  /    A nd           | Version:  9
     \\/     M anipulation  |
\*---------------------------------------------------------------------------*/
FoamFile
{
    format      ascii;
    class       surfaceScalarField;
    location    "0.09";
    object      phi;
}
// * * * * * * * * * * * * * * * * * * * * * * * * * * * * * * * * * * * * * //

dimensions      [0 3 -1 0 0 0 0];

internalField   nonuniform List<scalar> 
67
(
-2.26492e-06
6.72177e-07
-2.89067e-06
6.25752e-07
-3.41213e-06
5.21453e-07
-3.78235e-06
3.70227e-07
1.82794e-07
-6.78663e-06
2.29322e-06
-8.28005e-06
2.11917e-06
-9.51666e-06
1.75806e-06
-1.03849e-05
1.23843e-06
5.95546e-07
-1.09321e-05
4.69131e-06
-1.31101e-05
4.29725e-06
-1.48973e-05
3.54521e-06
-1.61432e-05
2.48432e-06
1.18105e-06
-1.4618e-05
7.77148e-06
-1.73852e-05
7.06447e-06
-1.96418e-05
5.80179e-06
-2.12141e-05
4.05667e-06
1.92936e-06
-1.79372e-05
1.14714e-05
-2.12436e-05
1.03709e-05
-2.39406e-05
8.49878e-06
-2.58389e-05
5.95495e-06
2.87346e-06
-2.09549e-05
1.57418e-05
-2.477e-05
1.4186e-05
-2.79026e-05
1.16313e-05
-3.01534e-05
8.20574e-06
4.07331e-06
-2.36905e-05
2.05334e-05
-2.79815e-05
1.84771e-05
-3.15443e-05
1.51941e-05
-3.41765e-05
1.0838e-05
5.59478e-06
-2.61247e-05
-3.08341e-05
-3.47968e-05
-3.78151e-05
)
;

boundaryField
{
    movingWall
    {
        type            calculated;
        value           nonuniform List<scalar> 0();
    }
    fixedWalls
    {
        type            calculated;
        value           uniform 0;
    }
    frontAndBack
    {
        type            empty;
        value           nonuniform List<scalar> 0();
    }
    procBoundary2to0
    {
        type            processor;
        value           nonuniform List<scalar> 8(1.59274e-06 5.16559e-06 8.53397e-06 1.15378e-05 1.42372e-05 1.66845e-05 1.88989e-05 2.08855e-05);
    }
    procBoundary2to3
    {
        type            processor;
        value           nonuniform List<scalar> 5(2.57726e-05 2.31865e-05 1.91568e-05 1.38562e-05 7.4864e-06);
    }
    procBoundary2to5
    {
        type            processor;
        value           nonuniform List<scalar> 8(-3.96515e-06 -1.07976e-05 -1.67287e-05 -2.19624e-05 -2.6783e-05 -3.13532e-05 -3.56979e-05 -3.97067e-05);
    }
}


// ************************************************************************* //
