/*--------------------------------*- C++ -*----------------------------------*\
| =========                 |                                                 |
| \\      /  F ield         | OpenFOAM: The Open Source CFD Toolbox           |
|  \\    /   O peration     | Version:  2212                                  |
|   \\  /    A nd           | Website:  www.openfoam.com                      |
|    \\/     M anipulation  |                                                 |
\*---------------------------------------------------------------------------*/
FoamFile
{
    version     2.0;
    format      ascii;
    arch        "LSB;label=32;scalar=64";
    class       volVectorField;
    location    "0.2";
    object      U;
}
// * * * * * * * * * * * * * * * * * * * * * * * * * * * * * * * * * * * * * //

dimensions      [0 1 -1 0 0 0 0];

internalField   nonuniform List<vector> 
44
(
(0.00930083 0 0)
(0.0276371 0 0)
(0.0451928 0 0)
(0.0614953 0 0)
(0.0761347 0 0)
(0.0114658 0 0)
(0.0340563 0 0)
(0.0556469 0 0)
(0.0756428 0 0)
(0.0935413 0 0)
(0.108943 0 0)
(0.121552 0 0)
(0.0140031 0 0)
(0.0415688 0 0)
(0.0678491 0 0)
(0.0920974 0 0)
(0.113704 0 0)
(0.132208 0 0)
(0.147288 0 0)
(0.017014 0 0)
(0.0504652 0 0)
(0.082245 0 0)
(0.111415 0 0)
(0.137245 0 0)
(0.159222 0 0)
(0.17702 0 0)
(0.0206355 0 0)
(0.0611346 0 0)
(0.0994176 0 0)
(0.134299 0 0)
(0.164922 0 0)
(0.190746 0 0)
(0.211489 0 0)
(0.0250632 0 0)
(0.0741219 0 0)
(0.120159 0 0)
(0.161671 0 0)
(0.197681 0 0)
(0.227686 0 0)
(0.251524 0 0)
(0.194768 0 0)
(0.236723 0 0)
(0.271121 0 0)
(0.298059 0 0)
)
;

boundaryField
{
    movingWall
    {
        type            fixedValue;
        value           nonuniform List<vector> 0();
    }
    fixedWalls
    {
        type            noSlip;
    }
    frontAndBack
    {
        type            empty;
    }
    procBoundary3to0
    {
        type            processor;
        value           nonuniform List<vector> 8((0.00743016 0 0) (0.022085 0 0) (0.0361338 0 0) (0.0492054 0 0) (0.0609729 0 0) (0.088779 0 0) (0.088779 0 0) (0.0991662 0 0));
    }
    procBoundary3to4
    {
        type            processor;
        value           nonuniform List<vector> 6((0.131167 0 0) (0.158737 0 0) (0.190462 0 0) (0.227043 0 0) (0.269238 0 0) (0.317841 0 0));
    }
    procBoundary3to6
    {
        type            processor;
        value           nonuniform List<vector> 7((0.0305927 0 0) (0.0902323 0 0) (0.145594 0 0) (0.145594 0 0) (0.235304 0 0) (0.283593 0 0) (0.322334 0 0));
    }
    procBoundary3to7
    {
        type            processor;
        value           uniform (0.352114 0 0);
    }
}


// ************************************************************************* //
