/*--------------------------------*- C++ -*----------------------------------*\
  =========                 |
  \\      /  F ield         | OpenFOAM: The Open Source CFD Toolbox
   \\    /   O peration     | Website:  https://openfoam.org
    \\  /    A nd           | Version:  9
     \\/     M anipulation  |
\*---------------------------------------------------------------------------*/
FoamFile
{
    format      ascii;
    class       surfaceScalarField;
    location    "0.035";
    object      phi;
}
// * * * * * * * * * * * * * * * * * * * * * * * * * * * * * * * * * * * * * //

dimensions      [0 3 -1 0 0 0 0];

internalField   nonuniform List<scalar> 
67
(
-2.20058e-05
-5.02919e-05
-1.46652e-05
-5.57575e-05
-5.80198e-06
-5.19961e-05
-2.75314e-05
-2.51765e-05
-2.94592e-05
-2.48783e-05
-4.10396e-05
-2.2315e-05
-5.28553e-05
-1.6361e-05
-6.17114e-05
-7.23184e-06
-6.11253e-05
-3.47632e-05
-1.49546e-05
-2.64863e-05
-1.77543e-05
-3.82398e-05
-1.89397e-05
-5.16699e-05
-1.63638e-05
-6.42873e-05
-8.58277e-06
-6.89064e-05
-4.3346e-05
4.02213e-06
-2.11465e-05
-2.62096e-06
-3.15968e-05
-9.1333e-06
-4.51576e-05
-1.2609e-05
-6.08116e-05
-9.09119e-06
-7.24242e-05
-5.24372e-05
3.40593e-05
-1.35912e-05
2.3651e-05
-2.11884e-05
1.08032e-05
-3.23099e-05
-1.77938e-06
-4.8229e-05
-7.18607e-06
-6.70175e-05
-5.96233e-05
7.91441e-05
-5.14108e-06
6.64056e-05
-8.44983e-06
4.82449e-05
-1.41492e-05
2.48006e-05
-2.47847e-05
2.4623e-06
-4.46792e-05
-5.7161e-05
0.000149224
0.000140774
0.000126625
0.00010184
5.7161e-05
)
;

boundaryField
{
    movingWall
    {
        type            calculated;
        value           uniform 0;
    }
    fixedWalls
    {
        type            calculated;
        value           uniform 0;
    }
    frontAndBack
    {
        type            empty;
        value           nonuniform List<scalar> 0();
    }
    procBoundary9to6
    {
        type            processor;
        value           nonuniform List<scalar> 6(2.44006e-05 1.19816e-05 -9.36187e-06 -4.16147e-05 -8.75943e-05 -0.000154365);
    }
    procBoundary9to8
    {
        type            processor;
        value           nonuniform List<scalar> 7(4.55493e-05 4.84169e-05 4.31328e-05 2.17294e-05 3.02352e-05 2.67484e-05 4.07414e-05);
    }
}


// ************************************************************************* //
