/*--------------------------------*- C++ -*----------------------------------*\
  =========                 |
  \\      /  F ield         | OpenFOAM: The Open Source CFD Toolbox
   \\    /   O peration     | Website:  https://openfoam.org
    \\  /    A nd           | Version:  8
     \\/     M anipulation  |
\*---------------------------------------------------------------------------*/
FoamFile
{
    version     2.0;
    format      ascii;
    class       volScalarField;
    location    "1";
    object      p;
}
// * * * * * * * * * * * * * * * * * * * * * * * * * * * * * * * * * * * * * //

dimensions      [0 2 -2 0 0 0 0];

internalField   nonuniform List<scalar> 
400
(
-0.0991483
-0.198105
-0.251234
-0.276602
-0.280232
-0.268016
-0.243077
-0.206004
-0.159439
-0.106373
-0.0490397
0.010378
0.0691141
0.124027
0.172243
0.211715
0.241448
0.26143
0.272439
0.276101
-0.198492
-0.238954
-0.268472
-0.283616
-0.282598
-0.267743
-0.241404
-0.204271
-0.15853
-0.106539
-0.0501145
0.00872096
0.067187
0.122009
0.170121
0.209302
0.238483
0.25759
0.266987
0.266635
-0.250172
-0.268375
-0.280176
-0.284575
-0.277245
-0.259897
-0.233829
-0.198737
-0.156164
-0.107892
-0.0550656
0.000853166
0.0572802
0.110713
0.157605
0.195307
0.222639
0.239742
0.247182
0.245431
-0.27317
-0.280667
-0.28067
-0.276474
-0.26385
-0.244723
-0.219978
-0.188485
-0.151161
-0.10917
-0.0627479
-0.0124155
0.03974
0.0900828
0.134514
0.169823
0.194576
0.209041
0.214129
0.210876
-0.277993
-0.279023
-0.271576
-0.260985
-0.244027
-0.22348
-0.200398
-0.17308
-0.141961
-0.107883
-0.0702931
-0.0285369
0.0162175
0.0605877
0.100195
0.131443
0.152665
0.164037
0.166772
0.162303
-0.270305
-0.267599
-0.255691
-0.241013
-0.221078
-0.199705
-0.178607
-0.15572
-0.130972
-0.105407
-0.0782737
-0.0477961
-0.0137347
0.0214729
0.0537459
0.0793926
0.0964704
0.104768
0.105741
0.100997
-0.255732
-0.251796
-0.238229
-0.222186
-0.20122
-0.179934
-0.161144
-0.142734
-0.123639
-0.105561
-0.0886859
-0.0707806
-0.0499303
-0.0267501
-0.0040869
0.0148351
0.0278016
0.033797
0.0342169
0.0304989
-0.239604
-0.236762
-0.224471
-0.210262
-0.190957
-0.171236
-0.155287
-0.141898
-0.127845
-0.115166
-0.106321
-0.100027
-0.0930091
-0.0833191
-0.0714637
-0.0594114
-0.0495487
-0.0442117
-0.042743
-0.0444926
-0.224349
-0.224862
-0.216857
-0.208181
-0.194412
-0.179073
-0.167123
-0.160679
-0.1529
-0.144275
-0.140137
-0.142067
-0.14667
-0.149369
-0.147468
-0.140832
-0.131798
-0.124589
-0.120408
-0.120394
-0.208198
-0.213756
-0.212716
-0.213393
-0.210282
-0.204498
-0.198621
-0.202419
-0.205299
-0.202698
-0.201424
-0.207326
-0.218912
-0.230031
-0.23472
-0.23016
-0.218297
-0.205714
-0.197004
-0.196583
-0.185013
-0.196154
-0.20461
-0.218372
-0.231685
-0.244051
-0.248016
-0.265371
-0.285232
-0.294887
-0.298807
-0.306521
-0.320196
-0.334134
-0.340214
-0.332976
-0.313521
-0.290846
-0.274513
-0.274304
-0.14563
-0.162211
-0.184291
-0.216093
-0.250898
-0.292992
-0.314326
-0.347497
-0.38842
-0.417432
-0.432574
-0.44388
-0.457113
-0.468973
-0.47132
-0.456894
-0.425116
-0.386331
-0.355819
-0.351788
-0.0812176
-0.104249
-0.148016
-0.207288
-0.266783
-0.347273
-0.398064
-0.450486
-0.511706
-0.562358
-0.593783
-0.612371
-0.624914
-0.631393
-0.626458
-0.602827
-0.556411
-0.495342
-0.438773
-0.418402
0.0129974
-0.0209175
-0.0964971
-0.197886
-0.285916
-0.398489
-0.487156
-0.567177
-0.649302
-0.721043
-0.771367
-0.799073
-0.807032
-0.801003
-0.78393
-0.751523
-0.693137
-0.607378
-0.509847
-0.452513
0.138408
0.083571
-0.0259383
-0.174921
-0.303379
-0.42584
-0.541471
-0.657913
-0.774132
-0.877647
-0.957115
-0.999478
-0.983299
-0.941053
-0.896231
-0.851875
-0.787985
-0.684553
-0.53936
-0.425489
0.302181
0.209152
0.0779114
-0.0842543
-0.265831
-0.397279
-0.527519
-0.689665
-0.875118
-1.05184
-1.18672
-1.23989
-1.18246
-1.05125
-0.917518
-0.826049
-0.753355
-0.65157
-0.480121
-0.309822
0.524983
0.382545
0.239129
0.116632
-0.0926445
-0.292176
-0.515335
-0.782695
-1.07141
-1.33326
-1.51576
-1.5764
-1.49602
-1.2634
-0.954471
-0.66862
-0.482987
-0.389977
-0.265169
-0.0887207
0.837077
0.689894
0.543307
0.36664
0.0751816
-0.26987
-0.665142
-1.06722
-1.41572
-1.67831
-1.84422
-1.908
-1.8591
-1.66439
-1.27368
-0.695117
-0.132009
0.20013
0.247576
0.314958
1.45399
1.25502
0.951357
0.481776
-0.106517
-0.645334
-1.08611
-1.44542
-1.73025
-1.94131
-2.08043
-2.14747
-2.13294
-2.00859
-1.71924
-1.17878
-0.310661
0.604427
1.10238
1.19897
2.09915
1.62242
0.829923
-0.00155556
-0.584846
-1.00247
-1.34142
-1.6272
-1.86008
-2.03789
-2.16049
-2.22661
-2.22774
-2.14347
-1.9408
-1.57466
-0.944198
0.126436
1.46118
2.18873
)
;

boundaryField
{
    movingWall
    {
        type            zeroGradient;
    }
    fixedWalls
    {
        type            zeroGradient;
    }
    frontAndBack
    {
        type            empty;
    }
}


// ************************************************************************* //
