/*--------------------------------*- C++ -*----------------------------------*\
  =========                 |
  \\      /  F ield         | OpenFOAM: The Open Source CFD Toolbox
   \\    /   O peration     | Website:  https://openfoam.org
    \\  /    A nd           | Version:  8
     \\/     M anipulation  |
\*---------------------------------------------------------------------------*/
FoamFile
{
    version     2.0;
    format      ascii;
    class       surfaceScalarField;
    location    "1";
    object      phi;
}
// * * * * * * * * * * * * * * * * * * * * * * * * * * * * * * * * * * * * * //

dimensions      [0 3 -1 0 0 0 0];

internalField   nonuniform List<scalar> 
760
(
6.40755e-08
-6.40469e-08
-1.33807e-07
1.97883e-07
-6.01201e-07
4.67397e-07
-1.24938e-06
6.4818e-07
-1.98561e-06
7.36226e-07
-2.72885e-06
7.43239e-07
-3.41022e-06
6.81369e-07
-3.97035e-06
5.60136e-07
-4.35759e-06
3.87237e-07
-4.52918e-06
1.71595e-07
-4.45592e-06
-7.32606e-08
-4.12911e-06
-3.26812e-07
-3.56789e-06
-5.61224e-07
-2.8244e-06
-7.43482e-07
-1.98408e-06
-8.40326e-07
-1.1586e-06
-8.25484e-07
-4.705e-07
-6.88097e-07
-2.98412e-08
-4.40659e-07
1.02161e-07
-1.32e-07
1.02164e-07
-1.96158e-07
1.32102e-07
-9.65765e-07
9.67499e-07
-2.25598e-06
1.75762e-06
-3.90477e-06
2.29697e-06
-5.72614e-06
2.5576e-06
-7.54141e-06
2.55852e-06
-9.18916e-06
2.32912e-06
-1.05273e-05
1.89825e-06
-1.14346e-05
1.29455e-06
-1.18162e-05
5.53179e-07
-1.16133e-05
-2.76161e-07
-1.08162e-05
-1.12389e-06
-9.47691e-06
-1.90051e-06
-7.71651e-06
-2.50389e-06
-5.72276e-06
-2.83408e-06
-3.7333e-06
-2.81495e-06
-2.00204e-06
-2.41936e-06
-7.49974e-07
-1.69274e-06
-1.03255e-07
-7.78728e-07
-1.08786e-09
-5.05944e-07
6.38052e-07
-1.89169e-06
2.35324e-06
-3.96585e-06
3.83178e-06
-6.48809e-06
4.8192e-06
-9.20568e-06
5.27519e-06
-1.18766e-05
5.2294e-06
-1.42794e-05
4.73199e-06
-1.62181e-05
3.8369e-06
-1.75258e-05
2.60231e-06
-1.80738e-05
1.10118e-06
-1.7784e-05
-5.66055e-07
-1.66445e-05
-2.26332e-06
-1.47256e-05
-3.81946e-06
-1.21881e-05
-5.04137e-06
-9.28161e-06
-5.74055e-06
-6.32424e-06
-5.77232e-06
-3.66163e-06
-5.08197e-06
-1.60706e-06
-3.7473e-06
-3.7124e-07
-2.01455e-06
-3.72326e-07
-7.89153e-07
1.42721e-06
-2.76751e-06
4.3316e-06
-5.58567e-06
6.64994e-06
-8.90957e-06
8.14309e-06
-1.24239e-05
8.78954e-06
-1.5839e-05
8.64446e-06
-1.88934e-05
7.78644e-06
-2.1356e-05
6.29943e-06
-2.30293e-05
4.27567e-06
-2.37591e-05
1.83098e-06
-2.34478e-05
-8.77413e-07
-2.20723e-05
-3.63883e-06
-1.97025e-05
-6.18917e-06
-1.65156e-05
-8.22834e-06
-1.27982e-05
-9.45798e-06
-8.9309e-06
-9.63957e-06
-5.34731e-06
-8.66557e-06
-2.46848e-06
-6.62612e-06
-6.26034e-07
-3.857e-06
-9.9836e-07
-1.04146e-06
2.46866e-06
-3.56863e-06
6.85877e-06
-7.08067e-06
1.0162e-05
-1.11467e-05
1.22091e-05
-1.53915e-05
1.30343e-05
-1.94867e-05
1.27397e-05
-2.31438e-05
1.14436e-05
-2.6109e-05
9.26464e-06
-2.81635e-05
6.3302e-06
-2.91302e-05
2.79769e-06
-2.8887e-05
-1.12064e-06
-2.73861e-05
-5.13976e-06
-2.46772e-05
-8.89802e-06
-2.09303e-05
-1.19752e-05
-1.64499e-05
-1.39385e-05
-1.16705e-05
-1.44189e-05
-7.12235e-06
-1.32137e-05
-3.3616e-06
-1.03869e-05
-8.76802e-07
-6.3418e-06
-1.87516e-06
-1.26635e-06
3.73502e-06
-4.2928e-06
9.88522e-06
-8.44117e-06
1.43104e-05
-1.31889e-05
1.69569e-05
-1.8106e-05
1.79513e-05
-2.28339e-05
1.74676e-05
-2.70672e-05
1.56769e-05
-3.05395e-05
1.2737e-05
-3.30173e-05
8.80799e-06
-3.43018e-05
4.08216e-06
-3.42397e-05
-1.18269e-06
-3.27438e-05
-6.6357e-06
-2.98214e-05
-1.18204e-05
-2.56094e-05
-1.61872e-05
-2.04071e-05
-1.91408e-05
-1.46921e-05
-2.01339e-05
-9.10092e-06
-1.88049e-05
-4.35715e-06
-1.51306e-05
-1.15145e-06
-9.54749e-06
-3.02661e-06
-1.46617e-06
5.20119e-06
-4.93929e-06
1.33583e-05
-9.65804e-06
1.90291e-05
-1.50166e-05
2.23154e-05
-2.05381e-05
2.34728e-05
-2.58435e-05
2.2773e-05
-3.06212e-05
2.04546e-05
-3.46029e-05
1.67187e-05
-3.75485e-05
1.17535e-05
-3.92402e-05
5.77392e-06
-3.94896e-05
-9.33282e-07
-3.81562e-05
-7.96914e-06
-3.51818e-05
-1.47948e-05
-3.06396e-05
-2.07295e-05
-2.47906e-05
-2.49898e-05
-1.8132e-05
-2.67925e-05
-1.14065e-05
-2.55304e-05
-5.53873e-06
-2.09984e-05
-1.48232e-06
-1.36039e-05
-4.50893e-06
-1.64158e-06
6.84277e-06
-5.50514e-06
1.72219e-05
-1.07168e-05
2.42407e-05
-1.65956e-05
2.81943e-05
-2.26274e-05
2.95046e-05
-2.84242e-05
2.85699e-05
-3.3682e-05
2.57123e-05
-3.81442e-05
2.11809e-05
-4.15761e-05
1.51854e-05
-4.37497e-05
7.94755e-06
-4.44429e-05
-2.40138e-07
-4.34539e-05
-8.95813e-06
-4.06381e-05
-1.76106e-05
-3.59691e-05
-2.53984e-05
-2.96236e-05
-3.13353e-05
-2.20733e-05
-3.43428e-05
-1.41451e-05
-3.34586e-05
-6.98991e-06
-2.81536e-05
-1.90342e-06
-1.86904e-05
-6.41235e-06
-1.79337e-06
8.63614e-06
-5.98832e-06
2.14169e-05
-1.16013e-05
2.98537e-05
-1.78812e-05
3.44742e-05
-2.42868e-05
3.59102e-05
-3.04358e-05
3.47189e-05
-3.6049e-05
3.13255e-05
-4.09e-05
2.6032e-05
-4.47781e-05
1.90634e-05
-4.74615e-05
1.0631e-05
-4.87062e-05
1.00453e-06
-4.82518e-05
-9.41254e-06
-4.58536e-05
-2.00088e-05
-4.13504e-05
-2.99016e-05
-3.47751e-05
-3.79106e-05
-2.65002e-05
-4.26177e-05
-1.73779e-05
-4.25809e-05
-8.785e-06
-3.67465e-05
-2.45036e-06
-2.50251e-05
-8.86271e-06
-1.9268e-06
1.05629e-05
-6.39717e-06
2.58872e-05
-1.23064e-05
3.5763e-05
-1.88319e-05
4.09996e-05
-2.54165e-05
4.24948e-05
-3.17027e-05
4.10051e-05
-3.7458e-05
3.70808e-05
-4.25108e-05
3.10848e-05
-4.66995e-05
2.32521e-05
-4.9835e-05
1.37665e-05
-5.16763e-05
2.84585e-06
-5.19224e-05
-9.16653e-06
-5.02307e-05
-2.17005e-05
-4.62795e-05
-3.38527e-05
-3.98927e-05
-4.42974e-05
-3.12401e-05
-5.12703e-05
-2.10862e-05
-5.27348e-05
-1.09787e-05
-4.6854e-05
-3.16183e-06
-3.28419e-05
-1.20245e-05
-2.05887e-06
1.26218e-05
-6.76555e-06
3.05939e-05
-1.28561e-05
4.18535e-05
-1.94276e-05
4.75711e-05
-2.59222e-05
4.89894e-05
-3.20327e-05
4.71156e-05
-3.76024e-05
4.26506e-05
-4.25441e-05
3.60265e-05
-4.67775e-05
2.74854e-05
-5.0181e-05
1.71701e-05
-5.25548e-05
5.21968e-06
-5.35946e-05
-8.12673e-06
-5.28868e-05
-2.24083e-05
-4.99465e-05
-3.67931e-05
-4.43339e-05
-4.99099e-05
-3.58926e-05
-5.97117e-05
-2.51211e-05
-6.35063e-05
-1.35885e-05
-5.83865e-05
-4.08172e-06
-4.23487e-05
-1.61063e-05
-2.22988e-06
1.48517e-05
-7.17384e-06
3.55379e-05
-1.33257e-05
4.80054e-05
-1.96879e-05
5.39333e-05
-2.57293e-05
5.50308e-05
-3.12319e-05
5.26182e-05
-3.61527e-05
4.75713e-05
-4.05234e-05
4.03972e-05
-4.43797e-05
3.13418e-05
-4.77076e-05
2.04979e-05
-5.0396e-05
7.90805e-06
-5.21931e-05
-6.32958e-06
-5.26705e-05
-2.19309e-05
-5.12165e-05
-3.8247e-05
-4.71095e-05
-5.40169e-05
-3.97489e-05
-6.70724e-05
-2.91319e-05
-7.41233e-05
-1.65632e-05
-7.09552e-05
-5.26098e-06
-5.36509e-05
-2.13672e-05
-2.52209e-06
1.73738e-05
-7.77449e-06
4.07903e-05
-1.38568e-05
5.40876e-05
-1.96718e-05
5.97484e-05
-2.47722e-05
6.01312e-05
-2.90916e-05
5.69376e-05
-3.27504e-05
5.12302e-05
-3.59374e-05
4.35842e-05
-3.88364e-05
3.42408e-05
-4.15761e-05
2.32375e-05
-4.41817e-05
1.05137e-05
-4.652e-05
-3.99135e-06
-4.82311e-05
-2.02198e-05
-4.86634e-05
-3.78148e-05
-4.68608e-05
-5.58195e-05
-4.17159e-05
-7.22173e-05
-3.24708e-05
-8.33685e-05
-1.97245e-05
-8.37015e-05
-6.75602e-06
-6.66194e-05
-2.81233e-05
-3.08969e-06
2.04635e-05
-8.81453e-06
4.65151e-05
-1.46405e-05
5.99136e-05
-1.94195e-05
6.45274e-05
-2.29096e-05
6.36213e-05
-2.52965e-05
5.93245e-05
-2.69281e-05
5.28617e-05
-2.8185e-05
4.48411e-05
-2.94202e-05
3.5476e-05
-3.09237e-05
2.4741e-05
-3.28887e-05
1.24787e-05
-3.53573e-05
-1.52273e-06
-3.81345e-05
-1.74425e-05
-4.06623e-05
-3.5287e-05
-4.18904e-05
-5.45914e-05
-4.02595e-05
-7.38482e-05
-3.40723e-05
-8.95557e-05
-2.26642e-05
-9.51096e-05
-8.61114e-06
-8.06724e-05
-3.67344e-05
-4.1998e-06
2.46633e-05
-1.06199e-05
5.29352e-05
-1.57938e-05
6.50875e-05
-1.87413e-05
6.7475e-05
-1.96689e-05
6.45488e-05
-1.91627e-05
5.88183e-05
-1.78671e-05
5.15661e-05
-1.63751e-05
4.33491e-05
-1.52021e-05
3.4303e-05
-1.47862e-05
2.43251e-05
-1.54832e-05
1.31758e-05
-1.75348e-05
5.28848e-07
-2.09862e-05
-1.39912e-05
-2.55278e-05
-3.07453e-05
-3.02491e-05
-4.98701e-05
-3.33759e-05
-7.07214e-05
-3.22956e-05
-9.0636e-05
-2.4548e-05
-0.000102857
-1.07843e-05
-9.44361e-05
-4.75187e-05
-6.24573e-06
3.0909e-05
-1.34032e-05
6.00926e-05
-1.69214e-05
6.86057e-05
-1.66351e-05
6.71888e-05
-1.36256e-05
6.15392e-05
-9.05021e-06
5.4243e-05
-3.88358e-06
4.63995e-05
1.10107e-06
3.83645e-05
5.28435e-06
3.01197e-05
8.14457e-06
2.14649e-05
9.22119e-06
1.20992e-05
8.10856e-06
1.64147e-06
4.50519e-06
-1.03878e-05
-1.64778e-06
-2.45923e-05
-9.86105e-06
-4.16569e-05
-1.85902e-05
-6.19922e-05
-2.47059e-05
-8.45203e-05
-2.37435e-05
-0.00010382
-1.29104e-05
-0.000105269
-6.04292e-05
-9.55958e-06
4.04686e-05
-1.64234e-05
6.69564e-05
-1.5818e-05
6.80003e-05
-9.88682e-06
6.12576e-05
-1.12455e-06
5.2777e-05
8.70354e-06
4.44149e-05
1.84175e-05
3.66855e-05
2.72206e-05
2.95614e-05
3.45359e-05
2.28044e-05
3.98889e-05
1.6112e-05
4.28295e-05
9.15858e-06
4.28897e-05
1.58128e-06
3.95817e-05
-7.07984e-06
3.24614e-05
-1.74721e-05
2.13725e-05
-3.0568e-05
7.04913e-06
-4.76688e-05
-7.76966e-06
-6.97015e-05
-1.72103e-05
-9.4379e-05
-1.37597e-05
-0.00010872
-7.41889e-05
-1.34276e-05
5.38962e-05
-1.50767e-05
6.86055e-05
-5.09418e-06
5.80178e-05
9.81244e-06
4.6351e-05
2.58409e-05
3.67485e-05
4.12075e-05
2.90483e-05
5.50322e-05
2.28607e-05
6.68514e-05
1.77423e-05
7.63765e-05
1.32792e-05
8.33564e-05
9.13207e-06
8.74968e-05
5.0182e-06
8.84057e-05
6.72344e-07
8.55579e-05
-4.23204e-06
7.82475e-05
-1.01616e-05
6.5646e-05
-1.79665e-05
4.71738e-05
-2.91967e-05
2.37852e-05
-4.63129e-05
7.08177e-07
-7.13019e-05
-1.0216e-05
-9.77955e-05
-8.44049e-05
-9.40585e-06
6.3302e-05
8.82363e-06
5.0376e-05
3.51793e-05
3.16622e-05
6.00307e-05
2.14996e-05
8.14745e-05
1.53047e-05
9.94399e-05
1.10829e-05
0.000114186
8.11495e-06
0.000125996
5.93247e-06
0.000135074
4.20072e-06
0.000141506
2.70036e-06
0.00014524
1.28407e-06
0.00014607
-1.57564e-07
0.000143605
-1.76679e-06
0.000137143
-3.69984e-06
0.000125513
-6.33717e-06
0.000106867
-1.05506e-05
7.90555e-05
-1.85011e-05
4.22798e-05
-3.45262e-05
6.89397e-06
-6.24097e-05
-7.75109e-05
6.3302e-05
0.000113678
0.00014534
0.00016684
0.000182144
0.000193227
0.000201342
0.000207275
0.000211475
0.000214176
0.00021546
0.000215302
0.000213536
0.000209836
0.000203499
0.000192948
0.000174447
0.000139921
7.75109e-05
)
;

boundaryField
{
    movingWall
    {
        type            calculated;
        value           uniform 0;
    }
    fixedWalls
    {
        type            calculated;
        value           uniform 0;
    }
    frontAndBack
    {
        type            empty;
        value           nonuniform List<scalar> 0();
    }
}


// ************************************************************************* //
