/*--------------------------------*- C++ -*----------------------------------*\
  =========                 |
  \\      /  F ield         | OpenFOAM: The Open Source CFD Toolbox
   \\    /   O peration     | Website:  https://openfoam.org
    \\  /    A nd           | Version:  8
     \\/     M anipulation  |
\*---------------------------------------------------------------------------*/
FoamFile
{
    version     2.0;
    format      ascii;
    class       volVectorField;
    location    "1";
    object      U;
}
// * * * * * * * * * * * * * * * * * * * * * * * * * * * * * * * * * * * * * //

dimensions      [0 1 -1 0 0 0 0];

internalField   nonuniform List<vector> 
400
(
(0.00120468 -0.00120685 0)
(0.000402876 0.000673504 0)
(-0.00644968 0.00286744 0)
(-0.017966 0.00434026 0)
(-0.0321707 0.00506891 0)
(-0.0472918 0.00518508 0)
(-0.0618244 0.00480561 0)
(-0.0744865 0.00400707 0)
(-0.0841647 0.00283716 0)
(-0.0899015 0.00134547 0)
(-0.0909545 -0.000383525 0)
(-0.0869184 -0.00220693 0)
(-0.0778761 -0.00391609 0)
(-0.0645336 -0.00525233 0)
(-0.0482838 -0.00594553 0)
(-0.0311465 -0.00577284 0)
(-0.0155454 -0.00462843 0)
(-0.00390934 -0.00259422 0)
(0.00189153 -8.67559e-05 0)
(0.00157699 0.00152425 0)
(-0.000622516 -0.000510827 0)
(-0.00896154 0.00883959 0)
(-0.0300518 0.0184016 0)
(-0.0603773 0.0249828 0)
(-0.0959689 0.0282358 0)
(-0.133153 0.0284663 0)
(-0.168517 0.0260709 0)
(-0.19901 0.0213956 0)
(-0.22198 0.014749 0)
(-0.235228 0.00649857 0)
(-0.237167 -0.00281637 0)
(-0.227056 -0.0124081 0)
(-0.205274 -0.0212326 0)
(-0.173544 -0.0280738 0)
(-0.134999 -0.0317243 0)
(-0.0940086 -0.0312505 0)
(-0.0556634 -0.0263022 0)
(-0.0249183 -0.017411 0)
(-0.00569966 -0.00641475 0)
(0.000312389 0.00208251 0)
(-0.00307477 0.00649715 0)
(-0.0201024 0.0303282 0)
(-0.0555708 0.0520698 0)
(-0.102977 0.0668939 0)
(-0.156639 0.0739875 0)
(-0.211672 0.0737786 0)
(-0.26345 0.0670263 0)
(-0.307764 0.0545254 0)
(-0.340951 0.0371059 0)
(-0.360007 0.015802 0)
(-0.362794 -0.00794457 0)
(-0.348345 -0.0321501 0)
(-0.317189 -0.0542984 0)
(-0.271622 -0.0715419 0)
(-0.215801 -0.0811116 0)
(-0.155547 -0.0809101 0)
(-0.0976974 -0.0702057 0)
(-0.0490395 -0.0502734 0)
(-0.0155779 -0.025029 0)
(-0.00167166 -0.00260534 0)
(-0.0052712 0.0195478 0)
(-0.0305645 0.0642274 0)
(-0.0798659 0.101413 0)
(-0.143234 0.125937 0)
(-0.213184 0.137001 0)
(-0.283859 0.135356 0)
(-0.349798 0.122237 0)
(-0.406042 0.0989958 0)
(-0.448269 0.0671208 0)
(-0.47291 0.028488 0)
(-0.477372 -0.0143402 0)
(-0.460367 -0.057919 0)
(-0.422295 -0.0979398 0)
(-0.365584 -0.129546 0)
(-0.294904 -0.147982 0)
(-0.217065 -0.149564 0)
(-0.140397 -0.132829 0)
(-0.0736102 -0.0995913 0)
(-0.0253368 -0.0557488 0)
(-0.00346065 -0.0125718 0)
(-0.00717199 0.0379635 0)
(-0.040016 0.109519 0)
(-0.102233 0.165016 0)
(-0.180458 0.200177 0)
(-0.265401 0.214945 0)
(-0.350353 0.210777 0)
(-0.429254 0.189578 0)
(-0.496668 0.153351 0)
(-0.547845 0.104292 0)
(-0.57878 0.0451517 0)
(-0.586407 -0.0203507 0)
(-0.568932 -0.0872413 0)
(-0.526275 -0.149274 0)
(-0.460544 -0.199307 0)
(-0.376459 -0.23016 0)
(-0.281507 -0.235965 0)
(-0.185487 -0.213864 0)
(-0.0994 -0.165627 0)
(-0.0352283 -0.0987551 0)
(-0.00510958 -0.0275213 0)
(-0.00883493 0.0611509 0)
(-0.0484905 0.165298 0)
(-0.122529 0.241924 0)
(-0.214401 0.288637 0)
(-0.313115 0.306866 0)
(-0.411238 0.299251 0)
(-0.502307 0.268613 0)
(-0.580625 0.2177 0)
(-0.641194 0.149401 0)
(-0.679664 0.0672562 0)
(-0.692446 -0.0239725 0)
(-0.677026 -0.117868 0)
(-0.632461 -0.206224 0)
(-0.560039 -0.279379 0)
(-0.464004 -0.327193 0)
(-0.352133 -0.340768 0)
(-0.235647 -0.314811 0)
(-0.12826 -0.250085 0)
(-0.0461996 -0.155175 0)
(-0.00687238 -0.0476204 0)
(-0.0103002 0.0885865 0)
(-0.0560325 0.23056 0)
(-0.140671 0.330953 0)
(-0.244774 0.3901 0)
(-0.355828 0.411647 0)
(-0.465838 0.39992 0)
(-0.568149 0.358941 0)
(-0.657026 0.292283 0)
(-0.727426 0.203456 0)
(-0.774773 0.0965986 0)
(-0.794949 -0.0227486 0)
(-0.784548 -0.146982 0)
(-0.741397 -0.266069 0)
(-0.665404 -0.367694 0)
(-0.559664 -0.438191 0)
(-0.431622 -0.46455 0)
(-0.293609 -0.437558 0)
(-0.162349 -0.355474 0)
(-0.0594047 -0.227098 0)
(-0.00904693 -0.0736568 0)
(-0.0115874 0.119775 0)
(-0.062651 0.304215 0)
(-0.15652 0.430678 0)
(-0.271124 0.502985 0)
(-0.392616 0.527727 0)
(-0.512649 0.51146 0)
(-0.62463 0.45971 0)
(-0.723071 0.376957 0)
(-0.803149 0.267212 0)
(-0.860277 0.134928 0)
(-0.889929 -0.0139802 0)
(-0.887752 -0.171169 0)
(-0.850069 -0.325144 0)
(-0.774837 -0.461008 0)
(-0.663157 -0.56111 0)
(-0.521154 -0.607116 0)
(-0.361468 -0.583912 0)
(-0.203739 -0.48496 0)
(-0.0760714 -0.31765 0)
(-0.0119614 -0.107094 0)
(-0.012717 0.154227 0)
(-0.068374 0.385098 0)
(-0.169961 0.539412 0)
(-0.292913 0.625227 0)
(-0.422224 0.652866 0)
(-0.549443 0.631716 0)
(-0.668366 0.569151 0)
(-0.774118 0.470654 0)
(-0.86247 0.340602 0)
(-0.92919 0.183414 0)
(-0.969635 0.00485841 0)
(-0.978679 -0.186634 0)
(-0.951056 -0.378757 0)
(-0.882311 -0.554474 0)
(-0.770601 -0.692018 0)
(-0.619326 -0.766601 0)
(-0.439916 -0.754805 0)
(-0.254075 -0.641918 0)
(-0.09746 -0.430899 0)
(-0.0159979 -0.150101 0)
(-0.0137568 0.191495 0)
(-0.073392 0.472023 0)
(-0.181119 0.655183 0)
(-0.309778 0.754114 0)
(-0.44333 0.783825 0)
(-0.573537 0.757246 0)
(-0.69501 0.684012 0)
(-0.80395 0.570735 0)
(-0.897227 0.422035 0)
(-0.971482 0.241941 0)
(-1.02249 0.0354778 0)
(-1.0448 -0.18966 0)
(-1.03182 -0.421344 0)
(-0.976499 -0.641346 0)
(-0.873184 -0.824276 0)
(-0.720832 -0.93825 0)
(-0.527268 -0.949002 0)
(-0.314141 -0.829013 0)
(-0.12485 -0.571543 0)
(-0.0216441 -0.205597 0)
(-0.0149022 0.231325 0)
(-0.0782965 0.563967 0)
(-0.190717 0.77577 0)
(-0.321915 0.886134 0)
(-0.454919 0.916046 0)
(-0.582163 0.882876 0)
(-0.699638 0.799004 0)
(-0.805216 0.67234 0)
(-0.897473 0.507661 0)
(-0.974589 0.308291 0)
(-1.03349 0.0779206 0)
(-1.0692 -0.177406 0)
(-1.07448 -0.447018 0)
(-1.04003 -0.713053 0)
(-0.955931 -0.947926 0)
(-0.814959 -1.11306 0)
(-0.618132 -1.16132 0)
(-0.383162 -1.04672 0)
(-0.159491 -0.744314 0)
(-0.0295737 -0.277342 0)
(-0.0166125 0.273993 0)
(-0.0844383 0.66045 0)
(-0.200527 0.898815 0)
(-0.330481 1.01681 0)
(-0.456592 1.04332 0)
(-0.572734 1.00127 0)
(-0.677084 0.906325 0)
(-0.769903 0.767849 0)
(-0.85215 0.590731 0)
(-0.924267 0.377358 0)
(-0.985199 0.129615 0)
(-1.03149 -0.148966 0)
(-1.05643 -0.4506 0)
(-1.04953 -0.759887 0)
(-0.996941 -1.04961 0)
(-0.884118 -1.27662 0)
(-0.701721 -1.38051 0)
(-0.457674 -1.29107 0)
(-0.202425 -0.952902 0)
(-0.040758 -0.370093 0)
(-0.0198509 0.320954 0)
(-0.0944443 0.762094 0)
(-0.213816 1.02189 0)
(-0.33774 1.1404 0)
(-0.448418 1.15732 0)
(-0.542558 1.10251 0)
(-0.621697 0.9953 0)
(-0.689339 0.846577 0)
(-0.749487 0.661255 0)
(-0.805484 0.440651 0)
(-0.859084 0.184583 0)
(-0.909463 -0.106528 0)
(-0.951978 -0.429064 0)
(-0.976732 -0.772434 0)
(-0.967562 -1.11342 0)
(-0.902802 -1.40859 0)
(-0.759905 -1.58701 0)
(-0.529747 -1.55056 0)
(-0.253974 -1.198 0)
(-0.056586 -0.489788 0)
(-0.0265032 0.375978 0)
(-0.1129 0.871279 0)
(-0.235466 1.14214 0)
(-0.346278 1.24907 0)
(-0.429436 1.24684 0)
(-0.487003 1.17353 0)
(-0.525552 1.05218 0)
(-0.55277 0.89484 0)
(-0.576201 0.706196 0)
(-0.60242 0.486401 0)
(-0.636429 0.233212 0)
(-0.68086 -0.0561984 0)
(-0.734628 -0.3831 0)
(-0.790783 -0.743724 0)
(-0.83381 -1.12297 0)
(-0.837384 -1.48367 0)
(-0.765231 -1.7515 0)
(-0.584299 -1.80225 0)
(-0.312397 -1.4738 0)
(-0.078841 -0.643479 0)
(-0.0400032 0.447039 0)
(-0.1469 0.992374 0)
(-0.270636 1.25484 0)
(-0.355519 1.33101 0)
(-0.392786 1.29634 0)
(-0.394138 1.1975 0)
(-0.373293 1.06022 0)
(-0.342873 0.896642 0)
(-0.314001 0.71055 0)
(-0.296213 0.500744 0)
(-0.297496 0.263156 0)
(-0.324028 -0.00783355 0)
(-0.379149 -0.318148 0)
(-0.461082 -0.671693 0)
(-0.558948 -1.06492 0)
(-0.646981 -1.47466 0)
(-0.679015 -1.83542 0)
(-0.594973 -2.00799 0)
(-0.370481 -1.76234 0)
(-0.108899 -0.838364 0)
(-0.0657096 0.549436 0)
(-0.204733 1.13005 0)
(-0.318333 1.34891 0)
(-0.351029 1.36649 0)
(-0.313255 1.28358 0)
(-0.23242 1.15314 0)
(-0.130995 1.00047 0)
(-0.0262727 0.835522 0)
(0.0680711 0.659854 0)
(0.140839 0.470543 0)
(0.182346 0.262066 0)
(0.183896 0.0270195 0)
(0.138097 -0.243764 0)
(0.0404618 -0.560772 0)
(-0.106564 -0.933045 0)
(-0.285243 -1.35796 0)
(-0.4494 -1.79457 0)
(-0.517708 -2.11248 0)
(-0.40772 -2.02657 0)
(-0.144198 -1.08061 0)
(-0.108532 0.712071 0)
(-0.286039 1.28064 0)
(-0.348917 1.39344 0)
(-0.27607 1.3179 0)
(-0.119727 1.17499 0)
(0.0729672 1.01417 0)
(0.272881 0.853835 0)
(0.461222 0.698056 0)
(0.624877 0.544476 0)
(0.753757 0.388039 0)
(0.83891 0.222301 0)
(0.871309 0.0394704 0)
(0.841372 -0.170463 0)
(0.739265 -0.421187 0)
(0.557283 -0.731213 0)
(0.297766 -1.11987 0)
(-0.00902022 -1.5854 0)
(-0.281497 -2.04286 0)
(-0.376 -2.20019 0)
(-0.167758 -1.37351 0)
(-0.155403 0.978344 0)
(-0.340036 1.40029 0)
(-0.237055 1.30629 0)
(0.0334991 1.11462 0)
(0.355052 0.923645 0)
(0.674798 0.754212 0)
(0.969758 0.608572 0)
(1.22804 0.481824 0)
(1.44283 0.36704 0)
(1.6092 0.257449 0)
(1.72202 0.146695 0)
(1.77464 0.0282176 0)
(1.75814 -0.106064 0)
(1.66031 -0.268152 0)
(1.46526 -0.478142 0)
(1.15675 -0.768782 0)
(0.731127 -1.18051 0)
(0.228143 -1.71311 0)
(-0.173244 -2.15915 0)
(-0.118893 -1.67472 0)
(-0.0475204 1.26934 0)
(-0.0719881 1.31672 0)
(0.411478 0.968857 0)
(0.958204 0.709473 0)
(1.42948 0.529286 0)
(1.82308 0.398376 0)
(2.14915 0.301103 0)
(2.41404 0.226104 0)
(2.62252 0.16456 0)
(2.77762 0.110092 0)
(2.87982 0.0579899 0)
(2.92667 0.00427473 0)
(2.91245 -0.0552937 0)
(2.82669 -0.127345 0)
(2.65155 -0.224362 0)
(2.35813 -0.373245 0)
(1.90158 -0.630313 0)
(1.22438 -1.07907 0)
(0.452759 -1.68832 0)
(0.217461 -1.70156 0)
(1.43813 0.707131 0)
(1.83554 0.626517 0)
(2.56312 0.398237 0)
(3.13715 0.251638 0)
(3.51152 0.164235 0)
(3.76869 0.109415 0)
(3.95623 0.0739913 0)
(4.09458 0.0502297 0)
(4.19471 0.0331155 0)
(4.26306 0.0195187 0)
(4.30272 0.00749025 0)
(4.3142 -0.00430747 0)
(4.29564 -0.0169533 0)
(4.24227 -0.0321699 0)
(4.1443 -0.0531734 0)
(3.98057 -0.0879731 0)
(3.70187 -0.158341 0)
(3.17385 -0.316127 0)
(2.29917 -0.622678 0)
(1.66801 -0.779759 0)
)
;

boundaryField
{
    movingWall
    {
        type            fixedValue;
        value           uniform (5.07338 0 0);
    }
    fixedWalls
    {
        type            noSlip;
    }
    frontAndBack
    {
        type            empty;
    }
}


// ************************************************************************* //
