/*--------------------------------*- C++ -*----------------------------------*\
  =========                 |
  \\      /  F ield         | OpenFOAM: The Open Source CFD Toolbox
   \\    /   O peration     | Website:  https://openfoam.org
    \\  /    A nd           | Version:  9
     \\/     M anipulation  |
\*---------------------------------------------------------------------------*/
FoamFile
{
    format      ascii;
    class       volScalarField;
    location    "0.09";
    object      p;
}
// * * * * * * * * * * * * * * * * * * * * * * * * * * * * * * * * * * * * * //

dimensions      [0 2 -2 0 0 0 0];

internalField   nonuniform List<scalar> 
40
(
0.00406192
0.0126115
0.0187799
0.0223152
0.0234024
0.0230221
-0.0010773
0.00822811
0.0148099
0.0182521
0.0190437
0.0175416
-0.0155989
-0.00499129
0.00243758
0.00644645
0.00763991
0.00629049
-0.0381358
-0.0255791
-0.0167337
-0.0117095
-0.0097808
-0.0107928
-0.0686316
-0.0536007
-0.0427188
-0.0361874
-0.0332421
-0.0339056
-0.107295
-0.0884
-0.0761703
-0.0676399
-0.0633271
-0.0640878
-0.11688
-0.106544
-0.101327
-0.102507
)
;

boundaryField
{
    movingWall
    {
        type            zeroGradient;
    }
    fixedWalls
    {
        type            zeroGradient;
    }
    frontAndBack
    {
        type            empty;
    }
    procBoundary7to5
    {
        type            processor;
        value           nonuniform List<scalar> 6(-0.017436 -0.0240414 -0.0384859 -0.0600299 -0.0886161 -0.124668);
    }
    procBoundary7to8
    {
        type            processor;
        value           nonuniform List<scalar> 7(-0.146224 -0.126683 -0.126683 -0.170507 -0.162283 -0.159111 -0.160066);
    }
}


// ************************************************************************* //
