/*--------------------------------*- C++ -*----------------------------------*\
  =========                 |
  \\      /  F ield         | OpenFOAM: The Open Source CFD Toolbox
   \\    /   O peration     | Website:  https://openfoam.org
    \\  /    A nd           | Version:  9
     \\/     M anipulation  |
\*---------------------------------------------------------------------------*/
FoamFile
{
    format      ascii;
    class       volVectorField;
    location    "0.035";
    object      U;
}
// * * * * * * * * * * * * * * * * * * * * * * * * * * * * * * * * * * * * * //

dimensions      [0 1 -1 0 0 0 0];

internalField   nonuniform List<vector> 
40
(
(-0.03799 0.0033527 0)
(-0.0463567 0.00324426 0)
(-0.0542527 0.00311008 0)
(-0.0608435 0.0025061 0)
(-0.0649423 0.00128379 0)
(-0.090754 0.0164083 0)
(-0.110645 0.0154579 0)
(-0.128251 0.0138344 0)
(-0.142072 0.010491 0)
(-0.150066 0.00524851 0)
(-0.133617 0.0409874 0)
(-0.161537 0.0378445 0)
(-0.185561 0.0325857 0)
(-0.203698 0.023789 0)
(-0.213638 0.0115132 0)
(-0.170224 0.0729235 0)
(-0.204804 0.0666115 0)
(-0.234192 0.0561936 0)
(-0.256038 0.0400514 0)
(-0.267715 0.0189002 0)
(-0.201604 0.111199 0)
(-0.242218 0.100963 0)
(-0.276704 0.0842417 0)
(-0.302353 0.0592802 0)
(-0.316208 0.0276006 0)
(-0.22858 0.155536 0)
(-0.274897 0.140854 0)
(-0.314442 0.116957 0)
(-0.344237 0.0820374 0)
(-0.36116 0.0387013 0)
(-0.25277 0.204911 0)
(-0.304798 0.185659 0)
(-0.349458 0.154181 0)
(-0.383633 0.109026 0)
(-0.405265 0.0534038 0)
(-0.280466 0.258671 0)
(-0.338679 0.23441 0)
(-0.388547 0.195195 0)
(-0.427325 0.139752 0)
(-0.451256 0.0721627 0)
)
;

boundaryField
{
    movingWall
    {
        type            fixedValue;
        value           nonuniform List<vector> 0();
    }
    fixedWalls
    {
        type            noSlip;
    }
    frontAndBack
    {
        type            empty;
    }
    procBoundary2to0
    {
        type            processor;
        value           nonuniform List<vector> 8((-0.0294378 0.00355575 0) (-0.0700333 0.0171398 0) (-0.104255 0.0430125 0) (-0.133685 0.07675 0) (-0.158749 0.117349 0) (-0.180035 0.164226 0) (-0.198736 0.21637 0) (-0.219603 0.271897 0));
    }
    procBoundary2to3
    {
        type            processor;
        value           nonuniform List<vector> 5((-0.319994 0.32035 0) (-0.385886 0.290177 0) (-0.440067 0.24131 0) (-0.480291 0.173789 0) (-0.503565 0.0930069 0));
    }
    procBoundary2to5
    {
        type            processor;
        value           nonuniform List<vector> 8((-0.0662549 3.31097e-08 0) (-0.152573 -0.000310445 0) (-0.216395 -0.00156266 0) (-0.270819 -0.00360956 0) (-0.320379 -0.0059657 0) (-0.368039 -0.00735387 0) (-0.415461 -0.00594804 0) (-0.465161 -0.00113396 0));
    }
}


// ************************************************************************* //
