/*--------------------------------*- C++ -*----------------------------------*\
  =========                 |
  \\      /  F ield         | OpenFOAM: The Open Source CFD Toolbox
   \\    /   O peration     | Website:  https://openfoam.org
    \\  /    A nd           | Version:  8
     \\/     M anipulation  |
\*---------------------------------------------------------------------------*/
FoamFile
{
    version     2.0;
    format      ascii;
    class       volScalarField;
    location    "1";
    object      p;
}
// * * * * * * * * * * * * * * * * * * * * * * * * * * * * * * * * * * * * * //

dimensions      [0 2 -2 0 0 0 0];

internalField   nonuniform List<scalar> 
400
(
-0.0991692
-0.198147
-0.251287
-0.276662
-0.280293
-0.268076
-0.243135
-0.206056
-0.159484
-0.10641
-0.049068
0.0103587
0.0691038
0.124025
0.172248
0.211725
0.241463
0.261447
0.272458
0.27612
-0.198534
-0.239005
-0.26853
-0.283676
-0.28266
-0.267804
-0.241461
-0.204322
-0.158575
-0.106576
-0.050143
0.00870143
0.0671764
0.122007
0.170126
0.209312
0.238497
0.257606
0.267004
0.266652
-0.250225
-0.268432
-0.280235
-0.284635
-0.277305
-0.259955
-0.233884
-0.198787
-0.156208
-0.107929
-0.0550948
0.000832553
0.0572683
0.110709
0.157608
0.195315
0.22265
0.239754
0.247195
0.245442
-0.273227
-0.280725
-0.280729
-0.276533
-0.263907
-0.244778
-0.22003
-0.188533
-0.151204
-0.109207
-0.0627782
-0.0124382
0.0397254
0.0900756
0.134513
0.169826
0.194582
0.209047
0.214133
0.210879
-0.278051
-0.279082
-0.271633
-0.26104
-0.24408
-0.22353
-0.200445
-0.173124
-0.142002
-0.10792
-0.0703248
-0.0285625
0.0161986
0.0605751
0.100187
0.131438
0.15266
0.164032
0.166765
0.162293
-0.270361
-0.267655
-0.255745
-0.241064
-0.221126
-0.199749
-0.17865
-0.155761
-0.131011
-0.105444
-0.0783076
-0.0478261
-0.0137601
0.0214519
0.0537279
0.0793756
0.0964522
0.104747
0.105716
0.10097
-0.255786
-0.251848
-0.238279
-0.222233
-0.201264
-0.179975
-0.161184
-0.142773
-0.123678
-0.105599
-0.0887238
-0.0708173
-0.0499651
-0.0267832
-0.00411934
0.0148016
0.0277653
0.0337565
0.0341722
0.0304512
-0.239653
-0.236811
-0.224518
-0.210307
-0.190999
-0.171276
-0.155327
-0.141939
-0.127887
-0.115209
-0.106366
-0.100074
-0.0930571
-0.0833686
-0.0715152
-0.0594659
-0.0496072
-0.0442749
-0.0428107
-0.0445631
-0.224394
-0.224907
-0.216902
-0.208225
-0.194456
-0.179116
-0.167168
-0.160726
-0.152951
-0.144329
-0.140195
-0.142129
-0.146737
-0.149441
-0.147544
-0.140913
-0.131883
-0.124677
-0.1205
-0.12049
-0.208236
-0.213796
-0.212759
-0.213438
-0.21033
-0.204549
-0.198676
-0.20248
-0.205365
-0.20277
-0.201502
-0.207411
-0.219004
-0.230132
-0.234828
-0.230273
-0.218412
-0.205831
-0.197123
-0.196705
-0.185042
-0.196187
-0.204649
-0.218418
-0.231739
-0.244113
-0.248086
-0.265451
-0.285323
-0.294987
-0.298917
-0.30664
-0.320326
-0.334275
-0.340363
-0.33313
-0.313674
-0.290997
-0.274662
-0.274456
-0.145644
-0.162231
-0.184321
-0.216137
-0.250957
-0.293068
-0.314416
-0.347603
-0.388543
-0.41757
-0.432726
-0.444046
-0.457293
-0.469166
-0.471523
-0.4571
-0.425318
-0.386523
-0.356003
-0.351973
-0.0812075
-0.104247
-0.148031
-0.207326
-0.266844
-0.347362
-0.398177
-0.450622
-0.511867
-0.562542
-0.593987
-0.612594
-0.625155
-0.63165
-0.626724
-0.603095
-0.55667
-0.495582
-0.438994
-0.418617
0.0130417
-0.0208852
-0.0964903
-0.197914
-0.285978
-0.398589
-0.48729
-0.567344
-0.649502
-0.721275
-0.771628
-0.799361
-0.807341
-0.801326
-0.784261
-0.751853
-0.693455
-0.607669
-0.510103
-0.452746
0.138498
0.0836438
-0.0259008
-0.174932
-0.303435
-0.425941
-0.541615
-0.6581
-0.774363
-0.877922
-0.957433
-0.999836
-0.983677
-0.941433
-0.896607
-0.852245
-0.788341
-0.68488
-0.539636
-0.425719
0.302331
0.209275
0.0779908
-0.0842301
-0.265866
-0.397364
-0.527653
-0.689855
-0.875372
-1.05217
-1.18711
-1.24033
-1.18292
-1.05168
-0.917905
-0.826405
-0.753695
-0.651886
-0.480383
-0.310019
0.525212
0.382733
0.239266
0.116719
-0.0926253
-0.292219
-0.51545
-0.782898
-1.07172
-1.33367
-1.51627
-1.57697
-1.49661
-1.26393
-0.954887
-0.668923
-0.483219
-0.39019
-0.265355
-0.0888449
0.837405
0.690177
0.54354
0.366816
0.0752663
-0.26989
-0.665287
-1.0675
-1.41613
-1.67884
-1.84485
-1.90869
-1.85981
-1.66506
-1.27423
-0.695452
-0.132124
0.200144
0.247595
0.31499
1.45452
1.25547
0.951717
0.482003
-0.106464
-0.645457
-1.08639
-1.44583
-1.73078
-1.94195
-2.08115
-2.14824
-2.13374
-2.00937
-1.71993
-1.17929
-0.310866
0.604576
1.10272
1.19934
2.09988
1.623
0.830267
-0.00146819
-0.584948
-1.00272
-1.34179
-1.62769
-1.86067
-2.03857
-2.16124
-2.22741
-2.22857
-2.14429
-1.94155
-1.57529
-0.944613
0.1264
1.46164
2.18946
)
;

boundaryField
{
    movingWall
    {
        type            zeroGradient;
    }
    fixedWalls
    {
        type            zeroGradient;
    }
    frontAndBack
    {
        type            empty;
    }
}


// ************************************************************************* //
