/*--------------------------------*- C++ -*----------------------------------*\
  =========                 |
  \\      /  F ield         | OpenFOAM: The Open Source CFD Toolbox
   \\    /   O peration     | Website:  https://openfoam.org
    \\  /    A nd           | Version:  8
     \\/     M anipulation  |
\*---------------------------------------------------------------------------*/
FoamFile
{
    version     2.0;
    format      ascii;
    class       surfaceScalarField;
    location    "1";
    object      phi;
}
// * * * * * * * * * * * * * * * * * * * * * * * * * * * * * * * * * * * * * //

dimensions      [0 3 -1 0 0 0 0];

internalField   nonuniform List<scalar> 
760
(
6.39911e-08
-6.41547e-08
-1.3388e-07
1.97872e-07
-6.01341e-07
4.67464e-07
-1.24963e-06
6.4829e-07
-1.98599e-06
7.36356e-07
-2.72936e-06
7.43375e-07
-3.41086e-06
6.81498e-07
-3.97111e-06
5.60248e-07
-4.35843e-06
3.87319e-07
-4.53007e-06
1.71637e-07
-4.4568e-06
-7.32689e-08
-4.12992e-06
-3.26875e-07
-3.56858e-06
-5.6134e-07
-2.82494e-06
-7.43637e-07
-1.98444e-06
-8.40501e-07
-1.15879e-06
-8.25652e-07
-4.7056e-07
-6.88229e-07
-2.98274e-08
-4.40732e-07
1.02187e-07
-1.32011e-07
1.02191e-07
-1.9625e-07
1.32085e-07
-9.66009e-07
9.6764e-07
-2.25646e-06
1.75792e-06
-3.90555e-06
2.29738e-06
-5.72726e-06
2.55807e-06
-7.54287e-06
2.55899e-06
-9.19094e-06
2.32956e-06
-1.05293e-05
1.89863e-06
-1.14368e-05
1.29483e-06
-1.18185e-05
5.53309e-07
-1.16156e-05
-2.76199e-07
-1.08183e-05
-1.12411e-06
-9.47877e-06
-1.9009e-06
-7.718e-06
-2.50441e-06
-5.72383e-06
-2.83467e-06
-3.73397e-06
-2.81552e-06
-2.00238e-06
-2.41983e-06
-7.50079e-07
-1.69304e-06
-1.03259e-07
-7.7884e-07
-1.06527e-09
-5.06071e-07
6.38161e-07
-1.8921e-06
2.35367e-06
-3.96667e-06
3.83248e-06
-6.48938e-06
4.82009e-06
-9.20748e-06
5.27617e-06
-1.18789e-05
5.23038e-06
-1.42822e-05
4.73291e-06
-1.62213e-05
3.83767e-06
-1.75293e-05
2.60285e-06
-1.80774e-05
1.10144e-06
-1.77875e-05
-5.66132e-07
-1.66478e-05
-2.26376e-06
-1.47285e-05
-3.82024e-06
-1.21905e-05
-5.04241e-06
-9.2834e-06
-5.74174e-06
-6.32542e-06
-5.7735e-06
-3.66228e-06
-5.08297e-06
-1.60732e-06
-3.74799e-06
-3.71291e-07
-2.01488e-06
-3.72354e-07
-7.89326e-07
1.42749e-06
-2.76808e-06
4.33243e-06
-5.5868e-06
6.6512e-06
-8.91133e-06
8.14462e-06
-1.24263e-05
8.79118e-06
-1.58421e-05
8.6461e-06
-1.88971e-05
7.78795e-06
-2.13601e-05
6.3007e-06
-2.30339e-05
4.27658e-06
-2.37638e-05
1.83142e-06
-2.34525e-05
-8.77519e-07
-2.20767e-05
-3.63952e-06
-1.97065e-05
-6.19042e-06
-1.65189e-05
-8.23004e-06
-1.28007e-05
-9.45995e-06
-8.93264e-06
-9.64156e-06
-5.34831e-06
-8.6673e-06
-2.46891e-06
-6.62738e-06
-6.26132e-07
-3.85766e-06
-9.98485e-07
-1.04167e-06
2.46917e-06
-3.56936e-06
6.86011e-06
-7.08208e-06
1.01639e-05
-1.11489e-05
1.22114e-05
-1.53944e-05
1.30367e-05
-1.94905e-05
1.27421e-05
-2.31483e-05
1.14458e-05
-2.61141e-05
9.26653e-06
-2.81691e-05
6.33156e-06
-2.91361e-05
2.79838e-06
-2.88929e-05
-1.12073e-06
-2.73917e-05
-5.1407e-06
-2.46823e-05
-8.89979e-06
-2.09346e-05
-1.19777e-05
-1.64532e-05
-1.39414e-05
-1.16728e-05
-1.44219e-05
-7.12375e-06
-1.32164e-05
-3.36223e-06
-1.03889e-05
-8.7695e-07
-6.34294e-06
-1.87544e-06
-1.26661e-06
3.73578e-06
-4.29365e-06
9.88715e-06
-8.44281e-06
1.43131e-05
-1.31914e-05
1.69601e-05
-1.81094e-05
1.79547e-05
-2.28383e-05
1.7471e-05
-2.70724e-05
1.568e-05
-3.05455e-05
1.27396e-05
-3.30239e-05
8.80994e-06
-3.43087e-05
4.08322e-06
-3.42468e-05
-1.18268e-06
-3.27506e-05
-6.63685e-06
-2.98277e-05
-1.18227e-05
-2.56148e-05
-1.61905e-05
-2.04114e-05
-1.91448e-05
-1.46952e-05
-2.01381e-05
-9.10281e-06
-1.88088e-05
-4.35801e-06
-1.51337e-05
-1.15166e-06
-9.54929e-06
-3.0271e-06
-1.46647e-06
5.20224e-06
-4.94024e-06
1.33609e-05
-9.65987e-06
1.90327e-05
-1.50194e-05
2.23196e-05
-2.0542e-05
2.34773e-05
-2.58484e-05
2.27774e-05
-3.06271e-05
2.04586e-05
-3.46097e-05
1.67222e-05
-3.75559e-05
1.17562e-05
-3.92482e-05
5.77549e-06
-3.94978e-05
-9.33044e-07
-3.81642e-05
-7.97039e-06
-3.51894e-05
-1.47976e-05
-3.06463e-05
-2.07336e-05
-2.4796e-05
-2.4995e-05
-1.8136e-05
-2.67982e-05
-1.1409e-05
-2.55358e-05
-5.5399e-06
-2.10028e-05
-1.48261e-06
-1.36066e-05
-4.50971e-06
-1.64189e-06
6.84414e-06
-5.50616e-06
1.72252e-05
-1.07187e-05
2.42453e-05
-1.65986e-05
2.81995e-05
-2.26315e-05
2.95102e-05
-2.84294e-05
2.85754e-05
-3.36883e-05
2.57175e-05
-3.81515e-05
2.11854e-05
-4.15842e-05
1.51889e-05
-4.37585e-05
7.94978e-06
-4.44521e-05
-2.39505e-07
-4.34631e-05
-8.95933e-06
-4.0647e-05
-1.76138e-05
-3.59772e-05
-2.54034e-05
-2.96304e-05
-3.13418e-05
-2.20783e-05
-3.43502e-05
-1.41483e-05
-3.34658e-05
-6.99147e-06
-2.81596e-05
-1.90382e-06
-1.86942e-05
-6.41352e-06
-1.79368e-06
8.63783e-06
-5.98936e-06
2.14209e-05
-1.16033e-05
2.98592e-05
-1.78843e-05
3.44805e-05
-2.4291e-05
3.59168e-05
-3.04412e-05
3.47256e-05
-3.60554e-05
3.13317e-05
-4.09076e-05
2.60376e-05
-4.47866e-05
1.90679e-05
-4.74709e-05
1.0634e-05
-4.87161e-05
1.00575e-06
-4.8262e-05
-9.41348e-06
-4.58636e-05
-2.00121e-05
-4.13598e-05
-2.99073e-05
-3.47832e-05
-3.79184e-05
-2.65064e-05
-4.26269e-05
-1.7382e-05
-4.25903e-05
-8.78707e-06
-3.67546e-05
-2.45091e-06
-2.50304e-05
-8.86444e-06
-1.9271e-06
1.05649e-05
-6.39818e-06
2.5892e-05
-1.23083e-05
3.57694e-05
-1.88348e-05
4.1007e-05
-2.54206e-05
4.25026e-05
-3.17079e-05
4.10129e-05
-3.74644e-05
3.70882e-05
-4.25183e-05
3.10915e-05
-4.6708e-05
2.32577e-05
-4.98446e-05
1.37706e-05
-5.16867e-05
2.84785e-06
-5.19332e-05
-9.16698e-06
-5.02416e-05
-2.17037e-05
-4.629e-05
-3.38589e-05
-3.9902e-05
-4.43063e-05
-3.12476e-05
-5.12813e-05
-2.10914e-05
-5.27465e-05
-1.09814e-05
-4.68645e-05
-3.16259e-06
-3.28492e-05
-1.2027e-05
-2.05915e-06
1.26241e-05
-6.76648e-06
3.05993e-05
-1.28579e-05
4.18608e-05
-1.94303e-05
4.75794e-05
-2.5926e-05
4.89982e-05
-3.20375e-05
4.71245e-05
-3.76084e-05
4.26591e-05
-4.25512e-05
3.60343e-05
-4.67856e-05
2.74921e-05
-5.01901e-05
1.71751e-05
-5.25649e-05
5.22262e-06
-5.36054e-05
-8.12644e-06
-5.2898e-05
-2.24111e-05
-4.99576e-05
-3.67994e-05
-4.43443e-05
-4.99196e-05
-3.59012e-05
-5.97244e-05
-2.51273e-05
-6.35204e-05
-1.3592e-05
-5.83999e-05
-4.08274e-06
-4.23584e-05
-1.61098e-05
-2.23013e-06
1.48542e-05
-7.17467e-06
3.55438e-05
-1.33273e-05
4.80134e-05
-1.96903e-05
5.39425e-05
-2.57326e-05
5.50405e-05
-3.12361e-05
5.2628e-05
-3.61578e-05
4.75808e-05
-4.05295e-05
4.0406e-05
-4.43868e-05
3.13494e-05
-4.77157e-05
2.0504e-05
-5.0405e-05
7.91199e-06
-5.22031e-05
-6.32838e-06
-5.26812e-05
-2.1933e-05
-5.12275e-05
-3.8253e-05
-4.71202e-05
-5.4027e-05
-3.97584e-05
-6.70862e-05
-2.91391e-05
-7.41397e-05
-1.65674e-05
-7.09716e-05
-5.26235e-06
-5.36635e-05
-2.13721e-05
-2.52233e-06
1.73765e-05
-7.77524e-06
4.07967e-05
-1.38581e-05
5.40963e-05
-1.96739e-05
5.97582e-05
-2.47749e-05
6.01415e-05
-2.90949e-05
5.6948e-05
-3.27545e-05
5.12403e-05
-3.59422e-05
4.35936e-05
-3.8842e-05
3.42492e-05
-4.15824e-05
2.32444e-05
-4.4189e-05
1.05186e-05
-4.65281e-05
-3.98921e-06
-4.82402e-05
-2.0221e-05
-4.86732e-05
-3.782e-05
-4.68709e-05
-5.58292e-05
-4.17255e-05
-7.22316e-05
-3.24787e-05
-8.33865e-05
-1.97296e-05
-8.37207e-05
-6.75782e-06
-6.66352e-05
-2.81299e-05
-3.08995e-06
2.04665e-05
-8.81529e-06
4.65221e-05
-1.46417e-05
5.99228e-05
-1.94213e-05
6.45378e-05
-2.29118e-05
6.3632e-05
-2.5299e-05
5.93353e-05
-2.69308e-05
5.28721e-05
-2.81881e-05
4.48509e-05
-2.94236e-05
3.54847e-05
-3.09276e-05
2.47484e-05
-3.28932e-05
1.24842e-05
-3.53626e-05
-1.51982e-06
-3.81408e-05
-1.74428e-05
-4.06696e-05
-3.52912e-05
-4.18987e-05
-5.46002e-05
-4.02681e-05
-7.38621e-05
-3.40803e-05
-8.95744e-05
-2.26699e-05
-9.51311e-05
-8.61344e-06
-8.06917e-05
-3.67434e-05
-4.20018e-06
2.46667e-05
-1.06208e-05
5.29427e-05
-1.57952e-05
6.50972e-05
-1.8743e-05
6.74855e-05
-1.96706e-05
6.45596e-05
-1.91643e-05
5.88289e-05
-1.78685e-05
5.15764e-05
-1.63763e-05
4.33586e-05
-1.52031e-05
3.43116e-05
-1.47871e-05
2.43324e-05
-1.54843e-05
1.31813e-05
-1.75363e-05
5.3217e-07
-2.09884e-05
-1.39907e-05
-2.55312e-05
-3.07483e-05
-3.02539e-05
-4.98775e-05
-3.33821e-05
-7.07339e-05
-3.23024e-05
-9.06541e-05
-2.45538e-05
-0.00010288
-1.07871e-05
-9.44583e-05
-4.75305e-05
-6.24644e-06
3.09131e-05
-1.34047e-05
6.0101e-05
-1.69233e-05
6.86157e-05
-1.6637e-05
6.71992e-05
-1.36269e-05
6.15496e-05
-9.05092e-06
5.42529e-05
-3.88345e-06
4.64089e-05
1.10209e-06
3.83731e-05
5.28625e-06
3.01274e-05
8.14722e-06
2.14714e-05
9.22435e-06
1.21042e-05
8.11187e-06
1.64465e-06
4.50815e-06
-1.03869e-05
-1.64582e-06
-2.45944e-05
-9.86079e-06
-4.16626e-05
-1.85922e-05
-6.20025e-05
-2.471e-05
-8.45363e-05
-2.37484e-05
-0.000103841
-1.29135e-05
-0.000105293
-6.0444e-05
-9.56098e-06
4.04741e-05
-1.64259e-05
6.69659e-05
-1.58206e-05
6.80104e-05
-9.88874e-06
6.12674e-05
-1.12526e-06
5.27861e-05
8.70433e-06
4.44233e-05
1.842e-05
3.66932e-05
2.72248e-05
2.95683e-05
3.45418e-05
2.28104e-05
3.98962e-05
1.6117e-05
4.2838e-05
9.16244e-06
4.28989e-05
1.58371e-06
3.95911e-05
-7.07912e-06
3.24701e-05
-1.74734e-05
2.13795e-05
-3.0572e-05
7.05331e-06
-4.76763e-05
-7.76905e-06
-6.97139e-05
-1.72127e-05
-9.43977e-05
-1.37625e-05
-0.000108743
-7.42065e-05
-1.34301e-05
5.39042e-05
-1.508e-05
6.86159e-05
-5.09654e-06
5.80269e-05
9.81207e-06
4.63588e-05
2.58429e-05
3.67552e-05
4.12121e-05
2.90542e-05
5.50395e-05
2.28658e-05
6.68611e-05
1.77467e-05
7.63886e-05
1.3283e-05
8.33705e-05
9.13507e-06
8.75126e-05
5.02041e-06
8.84226e-05
6.7366e-07
8.55753e-05
-4.23177e-06
7.82644e-05
-1.01626e-05
6.56613e-05
-1.79689e-05
4.71862e-05
-2.92011e-05
2.3793e-05
-4.63207e-05
7.10486e-07
-7.13152e-05
-1.02172e-05
-9.78157e-05
-8.44237e-05
-9.40868e-06
6.33128e-05
8.82299e-06
5.03842e-05
3.51825e-05
3.16674e-05
6.00378e-05
2.15034e-05
8.14853e-05
1.53077e-05
9.94542e-05
1.10853e-05
0.000114203
8.11693e-06
0.000126016
5.93407e-06
0.000135097
4.202e-06
0.00014153
2.70133e-06
0.000145266
1.28471e-06
0.000146097
-1.57246e-07
0.000143632
-1.76688e-06
0.00013717
-3.70036e-06
0.000125539
-6.33818e-06
0.00010689
-1.05523e-05
7.90737e-05
-1.85041e-05
4.22909e-05
-3.45324e-05
6.89705e-06
-6.24219e-05
-7.75267e-05
6.33128e-05
0.000113697
0.000145364
0.000166868
0.000182176
0.000193261
0.000201378
0.000207312
0.000211514
0.000214215
0.0002155
0.000215343
0.000213576
0.000209876
0.000203537
0.000192985
0.000174481
0.000139949
7.75267e-05
)
;

boundaryField
{
    movingWall
    {
        type            calculated;
        value           uniform 0;
    }
    fixedWalls
    {
        type            calculated;
        value           uniform 0;
    }
    frontAndBack
    {
        type            empty;
        value           nonuniform List<scalar> 0();
    }
}


// ************************************************************************* //
