/*--------------------------------*- C++ -*----------------------------------*\
  =========                 |
  \\      /  F ield         | OpenFOAM: The Open Source CFD Toolbox
   \\    /   O peration     | Website:  https://openfoam.org
    \\  /    A nd           | Version:  8
     \\/     M anipulation  |
\*---------------------------------------------------------------------------*/
FoamFile
{
    version     2.0;
    format      ascii;
    class       volVectorField;
    location    "1";
    object      U;
}
// * * * * * * * * * * * * * * * * * * * * * * * * * * * * * * * * * * * * * //

dimensions      [0 1 -1 0 0 0 0];

internalField   nonuniform List<vector> 
400
(
(0.00120386 -0.00120808 0)
(0.000401384 0.000672985 0)
(-0.00645154 0.00286764 0)
(-0.0179694 0.00434084 0)
(-0.0321762 0.00506967 0)
(-0.0472997 0.00518591 0)
(-0.0618347 0.00480641 0)
(-0.074499 0.00400778 0)
(-0.0841789 0.00283771 0)
(-0.0899168 0.00134577 0)
(-0.0909702 -0.000383532 0)
(-0.0869334 -0.00220728 0)
(-0.0778894 -0.00391679 0)
(-0.0645445 -0.0052533 0)
(-0.0482917 -0.00594662 0)
(-0.0311513 -0.00577386 0)
(-0.0155474 -0.00462919 0)
(-0.00390953 -0.00259456 0)
(0.00189209 -8.66517e-05 0)
(0.0015773 0.00152456 0)
(-0.000623296 -0.000512423 0)
(-0.00896432 0.00883998 0)
(-0.0300579 0.0184041 0)
(-0.0603882 0.0249866 0)
(-0.0959856 0.0282402 0)
(-0.133176 0.0284709 0)
(-0.168546 0.0260753 0)
(-0.199044 0.0213994 0)
(-0.222017 0.0147517 0)
(-0.235268 0.00649994 0)
(-0.237208 -0.00281666 0)
(-0.227095 -0.0124102 0)
(-0.205309 -0.0212364 0)
(-0.173573 -0.0280789 0)
(-0.135021 -0.0317301 0)
(-0.0940238 -0.0312561 0)
(-0.0556719 -0.0263066 0)
(-0.0249217 -0.0174137 0)
(-0.00570013 -0.00641538 0)
(0.00031257 0.00208311 0)
(-0.00307563 0.00649763 0)
(-0.0201066 0.0303326 0)
(-0.0555812 0.052078 0)
(-0.102995 0.0669046 0)
(-0.156666 0.0739994 0)
(-0.211708 0.0737907 0)
(-0.263495 0.0670376 0)
(-0.307816 0.0545349 0)
(-0.34101 0.0371128 0)
(-0.360069 0.0158053 0)
(-0.362857 -0.00794553 0)
(-0.348406 -0.0321555 0)
(-0.317245 -0.0543081 0)
(-0.271669 -0.071555 0)
(-0.215838 -0.0811264 0)
(-0.155573 -0.0809246 0)
(-0.097713 -0.0702177 0)
(-0.0490469 -0.0502813 0)
(-0.0155799 -0.0250323 0)
(-0.00167175 -0.0026052 0)
(-0.0052723 0.0195511 0)
(-0.0305703 0.064238 0)
(-0.0798803 0.10143 0)
(-0.143259 0.125958 0)
(-0.213221 0.137024 0)
(-0.283908 0.135379 0)
(-0.349858 0.122258 0)
(-0.406111 0.0990132 0)
(-0.448346 0.0671332 0)
(-0.472992 0.028494 0)
(-0.477456 -0.0143419 0)
(-0.460449 -0.0579288 0)
(-0.42237 -0.0979573 0)
(-0.365649 -0.129569 0)
(-0.294956 -0.148009 0)
(-0.217103 -0.149591 0)
(-0.140421 -0.132852 0)
(-0.0736219 -0.0996076 0)
(-0.0253404 -0.0557569 0)
(-0.00346101 -0.012573 0)
(-0.00717338 0.0379702 0)
(-0.0400233 0.109537 0)
(-0.102251 0.165043 0)
(-0.18049 0.200211 0)
(-0.265447 0.214981 0)
(-0.350413 0.210812 0)
(-0.429328 0.18961 0)
(-0.496754 0.153378 0)
(-0.54794 0.104311 0)
(-0.578881 0.0451614 0)
(-0.586511 -0.0203526 0)
(-0.569034 -0.0872556 0)
(-0.52637 -0.1493 0)
(-0.460628 -0.199343 0)
(-0.376528 -0.230202 0)
(-0.281557 -0.236008 0)
(-0.185519 -0.213902 0)
(-0.0994167 -0.165655 0)
(-0.0352338 -0.0987702 0)
(-0.00511021 -0.0275245 0)
(-0.00883658 0.0611618 0)
(-0.0484992 0.165327 0)
(-0.12255 0.241964 0)
(-0.214438 0.288685 0)
(-0.313168 0.306917 0)
(-0.411307 0.299301 0)
(-0.502393 0.268659 0)
(-0.580724 0.217739 0)
(-0.641305 0.149429 0)
(-0.679784 0.0672712 0)
(-0.69257 -0.0239735 0)
(-0.677149 -0.117887 0)
(-0.632578 -0.20626 0)
(-0.560144 -0.27943 0)
(-0.464091 -0.327254 0)
(-0.352199 -0.340831 0)
(-0.23569 -0.314868 0)
(-0.128283 -0.250129 0)
(-0.0462073 -0.1552 0)
(-0.00687332 -0.0476268 0)
(-0.0103021 0.0886024 0)
(-0.0560422 0.2306 0)
(-0.140694 0.331009 0)
(-0.244815 0.390165 0)
(-0.355887 0.411716 0)
(-0.465915 0.399987 0)
(-0.568244 0.359003 0)
(-0.657138 0.292337 0)
(-0.727552 0.203496 0)
(-0.774909 0.0966212 0)
(-0.795093 -0.0227469 0)
(-0.784692 -0.147003 0)
(-0.741537 -0.266114 0)
(-0.665531 -0.36776 0)
(-0.559772 -0.438271 0)
(-0.431707 -0.464637 0)
(-0.293666 -0.437639 0)
(-0.162379 -0.355538 0)
(-0.0594153 -0.227136 0)
(-0.00904832 -0.0736675 0)
(-0.0115894 0.119796 0)
(-0.0626614 0.304267 0)
(-0.156545 0.430749 0)
(-0.271167 0.503067 0)
(-0.392679 0.527815 0)
(-0.512731 0.511547 0)
(-0.624731 0.459791 0)
(-0.723191 0.377027 0)
(-0.803285 0.267266 0)
(-0.860428 0.13496 0)
(-0.890089 -0.0139732 0)
(-0.887917 -0.171191 0)
(-0.850231 -0.325196 0)
(-0.774987 -0.461089 0)
(-0.663289 -0.561213 0)
(-0.521259 -0.60723 0)
(-0.361541 -0.584022 0)
(-0.203779 -0.48505 0)
(-0.076086 -0.317706 0)
(-0.0119635 -0.107111 0)
(-0.012719 0.154254 0)
(-0.0683846 0.385162 0)
(-0.169987 0.5395 0)
(-0.292957 0.625328 0)
(-0.422288 0.652974 0)
(-0.549527 0.631822 0)
(-0.668471 0.569251 0)
(-0.774242 0.470743 0)
(-0.862613 0.340672 0)
(-0.929349 0.18346 0)
(-0.969807 0.0048739 0)
(-0.978859 -0.186654 0)
(-0.951236 -0.378815 0)
(-0.882484 -0.55457 0)
(-0.770757 -0.692145 0)
(-0.619454 -0.766746 0)
(-0.440008 -0.75495 0)
(-0.254129 -0.64204 0)
(-0.0974799 -0.430978 0)
(-0.0160009 -0.150126 0)
(-0.0137588 0.191527 0)
(-0.0734022 0.4721 0)
(-0.181144 0.655288 0)
(-0.309821 0.754235 0)
(-0.443392 0.783953 0)
(-0.57362 0.757373 0)
(-0.695112 0.684132 0)
(-0.804072 0.570843 0)
(-0.897369 0.422123 0)
(-0.971643 0.242003 0)
(-1.02266 0.0355054 0)
(-1.04499 -0.189674 0)
(-1.03201 -0.421404 0)
(-0.976689 -0.641452 0)
(-0.873361 -0.824424 0)
(-0.720983 -0.938428 0)
(-0.527381 -0.949187 0)
(-0.314209 -0.829176 0)
(-0.124877 -0.571652 0)
(-0.0216486 -0.205633 0)
(-0.014904 0.231362 0)
(-0.0783059 0.564056 0)
(-0.19074 0.775891 0)
(-0.321955 0.886273 0)
(-0.454976 0.916192 0)
(-0.582239 0.883022 0)
(-0.699733 0.799145 0)
(-0.805331 0.672467 0)
(-0.897607 0.507768 0)
(-0.974741 0.30837 0)
(-1.03366 0.0779634 0)
(-1.06938 -0.177408 0)
(-1.07467 -0.447074 0)
(-1.04023 -0.713165 0)
(-0.956122 -0.948093 0)
(-0.815129 -1.11327 0)
(-0.618266 -1.16155 0)
(-0.383247 -1.04693 0)
(-0.159527 -0.744461 0)
(-0.0295802 -0.277394 0)
(-0.0166141 0.274036 0)
(-0.0844467 0.66055 0)
(-0.200547 0.89895 0)
(-0.330516 1.01697 0)
(-0.456642 1.04348 0)
(-0.5728 1.00144 0)
(-0.677166 0.906484 0)
(-0.770002 0.767995 0)
(-0.852266 0.590857 0)
(-0.924401 0.377456 0)
(-0.98535 0.129675 0)
(-1.03166 -0.148954 0)
(-1.05662 -0.450646 0)
(-1.04972 -0.759998 0)
(-0.997135 -1.04979 0)
(-0.884299 -1.27685 0)
(-0.701872 -1.38078 0)
(-0.457777 -1.29133 0)
(-0.202472 -0.953096 0)
(-0.0407675 -0.370165 0)
(-0.0198525 0.321 0)
(-0.0944519 0.762204 0)
(-0.213834 1.02203 0)
(-0.33777 1.14057 0)
(-0.44846 1.1575 0)
(-0.542612 1.10268 0)
(-0.621762 0.995473 0)
(-0.689416 0.846738 0)
(-0.749577 0.661397 0)
(-0.805588 0.440765 0)
(-0.859203 0.18466 0)
(-0.909598 -0.1065 0)
(-0.95213 -0.429095 0)
(-0.976899 -0.772535 0)
(-0.967739 -1.1136 0)
(-0.902979 -1.40885 0)
(-0.760064 -1.58732 0)
(-0.529865 -1.55088 0)
(-0.254033 -1.19825 0)
(-0.0565997 -0.489888 0)
(-0.0265051 0.376029 0)
(-0.112908 0.871397 0)
(-0.235484 1.1423 0)
(-0.346304 1.24925 0)
(-0.42947 1.24703 0)
(-0.487044 1.17372 0)
(-0.525598 1.05236 0)
(-0.552822 0.895011 0)
(-0.576258 0.706349 0)
(-0.602484 0.486528 0)
(-0.636502 0.233303 0)
(-0.680946 -0.0561534 0)
(-0.734728 -0.383114 0)
(-0.790901 -0.743809 0)
(-0.833947 -1.12313 0)
(-0.837535 -1.48392 0)
(-0.765381 -1.75183 0)
(-0.584424 -1.80261 0)
(-0.312469 -1.47411 0)
(-0.0788604 -0.643616 0)
(-0.0400066 0.447095 0)
(-0.146912 0.992501 0)
(-0.270657 1.255 0)
(-0.355547 1.3312 0)
(-0.392816 1.29653 0)
(-0.394168 1.19769 0)
(-0.37332 1.0604 0)
(-0.342896 0.896814 0)
(-0.31402 0.710705 0)
(-0.29623 0.500876 0)
(-0.297513 0.263255 0)
(-0.324049 -0.0077771 0)
(-0.37918 -0.318146 0)
(-0.46113 -0.671757 0)
(-0.559018 -1.06506 0)
(-0.647078 -1.4749 0)
(-0.679132 -1.83575 0)
(-0.59509 -2.00838 0)
(-0.370564 -1.76271 0)
(-0.108925 -0.838546 0)
(-0.0657164 0.549501 0)
(-0.204753 1.13019 0)
(-0.318364 1.34909 0)
(-0.351063 1.36668 0)
(-0.313284 1.28377 0)
(-0.232439 1.15333 0)
(-0.131001 1.00065 0)
(-0.0262626 0.835686 0)
(0.0680972 0.660001 0)
(0.14088 0.470667 0)
(0.182398 0.262162 0)
(0.183955 0.027079 0)
(0.138154 -0.243751 0)
(0.0405082 -0.560816 0)
(-0.106541 -0.933161 0)
(-0.285256 -1.35816 0)
(-0.449454 -1.79487 0)
(-0.517793 -2.11288 0)
(-0.407802 -2.02699 0)
(-0.144231 -1.08085 0)
(-0.108546 0.712154 0)
(-0.286076 1.28079 0)
(-0.348965 1.39362 0)
(-0.276113 1.31808 0)
(-0.119752 1.17516 0)
(0.072967 1.01433 0)
(0.27291 0.85399 0)
(0.461281 0.698196 0)
(0.624966 0.544601 0)
(0.753874 0.388144 0)
(0.83905 0.222383 0)
(0.871468 0.0395225 0)
(0.841539 -0.170447 0)
(0.739428 -0.421215 0)
(0.557426 -0.731296 0)
(0.29787 -1.12003 0)
(-0.00897441 -1.58565 0)
(-0.281516 -2.04323 0)
(-0.37606 -2.20063 0)
(-0.167791 -1.37381 0)
(-0.155429 0.978466 0)
(-0.340095 1.40047 0)
(-0.237111 1.30646 0)
(0.0334724 1.11478 0)
(0.355066 0.92379 0)
(0.674856 0.754342 0)
(0.969863 0.608688 0)
(1.22819 0.481926 0)
(1.44303 0.367128 0)
(1.60943 0.257522 0)
(1.72228 0.14675 0)
(1.77493 0.0282522 0)
(1.75845 -0.106053 0)
(1.66061 -0.26817 0)
(1.46555 -0.478195 0)
(1.157 -0.768884 0)
(0.731312 -1.18069 0)
(0.228236 -1.7134 0)
(-0.173244 -2.15955 0)
(-0.118905 -1.67506 0)
(-0.0475444 1.26952 0)
(-0.0720288 1.3169 0)
(0.411497 0.968995 0)
(0.958295 0.709582 0)
(1.42964 0.529375 0)
(1.8233 0.39845 0)
(2.14943 0.301165 0)
(2.41437 0.226155 0)
(2.6229 0.164602 0)
(2.77804 0.110125 0)
(2.88027 0.0580135 0)
(2.92714 0.00428759 0)
(2.91294 -0.0552926 0)
(2.82717 -0.127357 0)
(2.65202 -0.22439 0)
(2.35857 -0.373294 0)
(1.90195 -0.6304 0)
(1.22465 -1.07924 0)
(0.452884 -1.68861 0)
(0.217525 -1.70187 0)
(1.43835 0.707242 0)
(1.83581 0.626615 0)
(2.56349 0.398303 0)
(3.13762 0.251684 0)
(3.51204 0.164268 0)
(3.76926 0.109439 0)
(3.95684 0.0740091 0)
(4.09522 0.0502431 0)
(4.19538 0.0331254 0)
(4.26375 0.0195256 0)
(4.30342 0.00749436 0)
(4.31491 -0.00430639 0)
(4.29635 -0.0169551 0)
(4.24298 -0.0321749 0)
(4.14499 -0.0531819 0)
(3.98124 -0.087986 0)
(3.7025 -0.158362 0)
(3.17441 -0.316168 0)
(2.29958 -0.622772 0)
(1.6683 -0.779889 0)
)
;

boundaryField
{
    movingWall
    {
        type            fixedValue;
        value           uniform (5.07422 0 0);
    }
    fixedWalls
    {
        type            noSlip;
    }
    frontAndBack
    {
        type            empty;
    }
}


// ************************************************************************* //
