/*--------------------------------*- C++ -*----------------------------------*\
  =========                 |
  \\      /  F ield         | OpenFOAM: The Open Source CFD Toolbox
   \\    /   O peration     | Website:  https://openfoam.org
    \\  /    A nd           | Version:  8
     \\/     M anipulation  |
\*---------------------------------------------------------------------------*/
FoamFile
{
    version     2.0;
    format      ascii;
    class       volScalarField;
    location    "1";
    object      p;
}
// * * * * * * * * * * * * * * * * * * * * * * * * * * * * * * * * * * * * * //

dimensions      [0 2 -2 0 0 0 0];

internalField   nonuniform List<scalar> 
400
(
-0.0992228
-0.198254
-0.251425
-0.276816
-0.280456
-0.268241
-0.243297
-0.206211
-0.159629
-0.106543
-0.0491872
0.0102537
0.0690127
0.123946
0.172181
0.211667
0.241411
0.261399
0.272412
0.276074
-0.198641
-0.239133
-0.268676
-0.283835
-0.282824
-0.267969
-0.241622
-0.204477
-0.15872
-0.106709
-0.0502626
0.00859591
0.0670849
0.121929
0.170058
0.209254
0.238444
0.257557
0.266956
0.266603
-0.250362
-0.268578
-0.28039
-0.284797
-0.277469
-0.260118
-0.234044
-0.19894
-0.156353
-0.108062
-0.0552156
0.000725142
0.0571744
0.110628
0.157537
0.195252
0.222592
0.239699
0.247139
0.245385
-0.27338
-0.280883
-0.280889
-0.276695
-0.264068
-0.244937
-0.220185
-0.188682
-0.151346
-0.10934
-0.0629012
-0.0125492
0.0396268
0.0899887
0.134435
0.169755
0.194514
0.208979
0.214064
0.210807
-0.278212
-0.279244
-0.271795
-0.2612
-0.244237
-0.223684
-0.200595
-0.17327
-0.142142
-0.108053
-0.0704505
-0.0286787
0.0160926
0.0604788
0.100099
0.131354
0.152577
0.163946
0.166676
0.1622
-0.270524
-0.267818
-0.255905
-0.24122
-0.221278
-0.199897
-0.178794
-0.155902
-0.131149
-0.105578
-0.0784376
-0.0479503
-0.0138775
0.0213411
0.0536215
0.0792707
0.0963455
0.104636
0.1056
0.100849
-0.255947
-0.25201
-0.238436
-0.222386
-0.201412
-0.180118
-0.161324
-0.142912
-0.123817
-0.105737
-0.088861
-0.070953
-0.0500985
-0.0269145
-0.00424992
0.0146693
0.0276288
0.0336138
0.0340233
0.0302978
-0.239812
-0.236969
-0.224674
-0.210458
-0.191146
-0.171419
-0.155469
-0.142082
-0.128032
-0.115356
-0.106515
-0.100226
-0.0932127
-0.083527
-0.0716771
-0.0596324
-0.0497796
-0.0444541
-0.0429962
-0.0447528
-0.224547
-0.225062
-0.217055
-0.208378
-0.194607
-0.179266
-0.167318
-0.16088
-0.15311
-0.144493
-0.140365
-0.142306
-0.146922
-0.149635
-0.147745
-0.141121
-0.132096
-0.124897
-0.120725
-0.120718
-0.208382
-0.213945
-0.212911
-0.213593
-0.210489
-0.204712
-0.198843
-0.202656
-0.205551
-0.202964
-0.201706
-0.207625
-0.219232
-0.230373
-0.235079
-0.230531
-0.218674
-0.206095
-0.19739
-0.196976
-0.185174
-0.196326
-0.204795
-0.218575
-0.231908
-0.244293
-0.248277
-0.265658
-0.285547
-0.295227
-0.29917
-0.306909
-0.320613
-0.334578
-0.340679
-0.333451
-0.313995
-0.291312
-0.274975
-0.274773
-0.145754
-0.16235
-0.184455
-0.21629
-0.251133
-0.293269
-0.314638
-0.34785
-0.388817
-0.41787
-0.433047
-0.444388
-0.457657
-0.469551
-0.471921
-0.457502
-0.425711
-0.386901
-0.356368
-0.35234
-0.0812827
-0.104335
-0.148143
-0.20747
-0.267024
-0.347585
-0.398434
-0.450915
-0.512199
-0.562912
-0.594389
-0.613026
-0.625615
-0.632133
-0.627221
-0.603593
-0.557152
-0.496035
-0.439417
-0.41903
0.0130171
-0.0209273
-0.0965702
-0.198045
-0.286158
-0.398828
-0.487581
-0.567685
-0.649894
-0.721717
-0.772118
-0.799893
-0.807907
-0.801914
-0.784859
-0.752448
-0.694029
-0.608201
-0.51058
-0.45319
0.138542
0.0836614
-0.0259356
-0.175038
-0.30361
-0.426184
-0.541922
-0.658472
-0.774802
-0.878429
-0.958006
-1.00047
-0.984352
-0.942111
-0.897277
-0.852904
-0.788978
-0.685469
-0.540145
-0.42616
0.302465
0.209367
0.0780184
-0.0842848
-0.266011
-0.397583
-0.527945
-0.690231
-0.875845
-1.05275
-1.18779
-1.2411
-1.18372
-1.05244
-0.918597
-0.82705
-0.754312
-0.652464
-0.480875
-0.310411
0.525463
0.382921
0.23938
0.116759
-0.092687
-0.292377
-0.515717
-0.783298
-1.07227
-1.33439
-1.51713
-1.57792
-1.49758
-1.26482
-0.955619
-0.669489
-0.483678
-0.390616
-0.265734
-0.0891281
0.837808
0.690511
0.5438
0.366988
0.0753
-0.270017
-0.665601
-1.06803
-1.41686
-1.67975
-1.84589
-1.90982
-1.86097
-1.66615
-1.27514
-0.696058
-0.132401
0.20006
0.24752
0.314938
1.45522
1.25607
0.952168
0.482248
-0.106483
-0.645741
-1.08691
-1.44656
-1.73169
-1.943
-2.08233
-2.14951
-2.13504
-2.01064
-1.72107
-1.18015
-0.311271
0.604703
1.10314
1.19979
2.1009
1.62378
0.830688
-0.00143433
-0.5852
-1.00319
-1.34245
-1.62852
-1.86166
-2.03969
-2.16248
-2.22872
-2.22992
-2.14562
-1.94279
-1.57635
-0.945342
0.126247
1.46223
2.19047
)
;

boundaryField
{
    movingWall
    {
        type            zeroGradient;
    }
    fixedWalls
    {
        type            zeroGradient;
    }
    frontAndBack
    {
        type            empty;
    }
}


// ************************************************************************* //
