/*--------------------------------*- C++ -*----------------------------------*\
  =========                 |
  \\      /  F ield         | OpenFOAM: The Open Source CFD Toolbox
   \\    /   O peration     | Website:  https://openfoam.org
    \\  /    A nd           | Version:  8
     \\/     M anipulation  |
\*---------------------------------------------------------------------------*/
FoamFile
{
    version     2.0;
    format      ascii;
    class       surfaceScalarField;
    location    "1";
    object      phi;
}
// * * * * * * * * * * * * * * * * * * * * * * * * * * * * * * * * * * * * * //

dimensions      [0 3 -1 0 0 0 0];

internalField   nonuniform List<scalar> 
760
(
6.40106e-08
-6.41737e-08
-1.3393e-07
1.97941e-07
-6.01543e-07
4.67617e-07
-1.25004e-06
6.48497e-07
-1.98663e-06
7.3659e-07
-2.73025e-06
7.43613e-07
-3.41197e-06
6.81723e-07
-3.97241e-06
5.60441e-07
-4.35987e-06
3.87461e-07
-4.53158e-06
1.7171e-07
-4.4583e-06
-7.3282e-08
-4.13131e-06
-3.26983e-07
-3.56978e-06
-5.61537e-07
-2.82587e-06
-7.43905e-07
-1.98507e-06
-8.40804e-07
-1.15913e-06
-8.25942e-07
-4.70668e-07
-6.88458e-07
-2.98045e-08
-4.40863e-07
1.02232e-07
-1.32033e-07
1.02235e-07
-1.96321e-07
1.32138e-07
-9.66343e-07
9.67971e-07
-2.25722e-06
1.7585e-06
-3.90684e-06
2.29812e-06
-5.72914e-06
2.55889e-06
-7.54535e-06
2.55982e-06
-9.19396e-06
2.33033e-06
-1.05328e-05
1.89928e-06
-1.14406e-05
1.2953e-06
-1.18225e-05
5.53536e-07
-1.16195e-05
-2.76261e-07
-1.0822e-05
-1.12448e-06
-9.48195e-06
-1.90157e-06
-7.72056e-06
-2.5053e-06
-5.72568e-06
-2.83568e-06
-3.73513e-06
-2.8165e-06
-2.00295e-06
-2.42064e-06
-7.50259e-07
-1.69356e-06
-1.03266e-07
-7.79036e-07
-1.02731e-09
-5.06251e-07
6.38394e-07
-1.89276e-06
2.35448e-06
-3.96801e-06
3.83375e-06
-6.49155e-06
4.82165e-06
-9.21053e-06
5.27788e-06
-1.18828e-05
5.23209e-06
-1.4287e-05
4.73448e-06
-1.62267e-05
3.83899e-06
-1.75352e-05
2.60379e-06
-1.80835e-05
1.10189e-06
-1.77935e-05
-5.66263e-07
-1.66535e-05
-2.26451e-06
-1.47335e-05
-3.82157e-06
-1.21946e-05
-5.0442e-06
-9.28646e-06
-5.74379e-06
-6.32744e-06
-5.77552e-06
-3.66339e-06
-5.08469e-06
-1.60777e-06
-3.74918e-06
-3.71377e-07
-2.01543e-06
-3.72402e-07
-7.89606e-07
1.42801e-06
-2.76904e-06
4.33391e-06
-5.58869e-06
6.6534e-06
-8.91431e-06
8.14727e-06
-1.24305e-05
8.79404e-06
-1.58473e-05
8.64893e-06
-1.89034e-05
7.79055e-06
-2.13673e-05
6.30287e-06
-2.30416e-05
4.27814e-06
-2.37719e-05
1.83218e-06
-2.34605e-05
-8.77701e-07
-2.20843e-05
-3.64071e-06
-1.97133e-05
-6.19256e-06
-1.65245e-05
-8.23295e-06
-1.2805e-05
-9.46332e-06
-8.93558e-06
-9.64495e-06
-5.35001e-06
-8.67027e-06
-2.46965e-06
-6.62953e-06
-6.26298e-07
-3.85879e-06
-9.987e-07
-1.04204e-06
2.47005e-06
-3.57058e-06
6.86244e-06
-7.08446e-06
1.01673e-05
-1.11526e-05
1.22154e-05
-1.53995e-05
1.3041e-05
-1.94969e-05
1.27463e-05
-2.3156e-05
1.14496e-05
-2.61229e-05
9.26975e-06
-2.81786e-05
6.3339e-06
-2.9146e-05
2.79957e-06
-2.89028e-05
-1.1209e-06
-2.74012e-05
-5.14231e-06
-2.46909e-05
-8.90282e-06
-2.0942e-05
-1.19819e-05
-1.6459e-05
-1.39463e-05
-1.16768e-05
-1.44271e-05
-7.12612e-06
-1.3221e-05
-3.36329e-06
-1.03923e-05
-8.77202e-07
-6.34488e-06
-1.8759e-06
-1.26705e-06
3.7371e-06
-4.2951e-06
9.89049e-06
-8.44561e-06
1.43178e-05
-1.31958e-05
1.69656e-05
-1.81153e-05
1.79605e-05
-2.28457e-05
1.74767e-05
-2.70813e-05
1.56852e-05
-3.05556e-05
1.27441e-05
-3.3035e-05
8.81325e-06
-3.43204e-05
4.08502e-06
-3.42587e-05
-1.18267e-06
-3.27622e-05
-6.63881e-06
-2.98383e-05
-1.18267e-05
-2.56241e-05
-1.61962e-05
-2.04188e-05
-1.91516e-05
-1.47005e-05
-2.01454e-05
-9.10599e-06
-1.88155e-05
-4.35947e-06
-1.51389e-05
-1.15202e-06
-9.55233e-06
-3.02792e-06
-1.46696e-06
5.20407e-06
-4.94186e-06
1.33654e-05
-9.66298e-06
1.90389e-05
-1.50242e-05
2.23268e-05
-2.05485e-05
2.34848e-05
-2.58567e-05
2.27849e-05
-3.0637e-05
2.04655e-05
-3.4621e-05
1.67281e-05
-3.75685e-05
1.17607e-05
-3.92616e-05
5.77813e-06
-3.95116e-05
-9.32656e-07
-3.81779e-05
-7.97254e-06
-3.52022e-05
-1.48023e-05
-3.06576e-05
-2.07408e-05
-2.48053e-05
-2.50039e-05
-1.81428e-05
-2.68079e-05
-1.14132e-05
-2.5545e-05
-5.54187e-06
-2.10102e-05
-1.4831e-06
-1.36111e-05
-4.51102e-06
-1.64242e-06
6.84649e-06
-5.50788e-06
1.72309e-05
-1.0722e-05
2.42531e-05
-1.66037e-05
2.82085e-05
-2.26384e-05
2.95196e-05
-2.84383e-05
2.85847e-05
-3.36989e-05
2.57262e-05
-3.81638e-05
2.1193e-05
-4.1598e-05
1.51948e-05
-4.37734e-05
7.95355e-06
-4.44676e-05
-2.38438e-07
-4.34788e-05
-8.96138e-06
-4.0662e-05
-1.76191e-05
-3.59908e-05
-2.5412e-05
-2.96418e-05
-3.13529e-05
-2.20869e-05
-3.43627e-05
-1.41538e-05
-3.34782e-05
-6.99412e-06
-2.81698e-05
-1.9045e-06
-1.87007e-05
-6.41552e-06
-1.79422e-06
8.64072e-06
-5.99111e-06
2.14277e-05
-1.16067e-05
2.98686e-05
-1.78895e-05
3.44913e-05
-2.42981e-05
3.59282e-05
-3.04502e-05
3.47369e-05
-3.60664e-05
3.13424e-05
-4.09204e-05
2.6047e-05
-4.48011e-05
1.90756e-05
-4.74868e-05
1.06392e-05
-4.87331e-05
1.00784e-06
-4.82794e-05
-9.41507e-06
-4.58807e-05
-2.00178e-05
-4.13757e-05
-2.9917e-05
-3.47969e-05
-3.79317e-05
-2.65171e-05
-4.26426e-05
-1.7389e-05
-4.26062e-05
-8.79059e-06
-3.67683e-05
-2.45186e-06
-2.50395e-05
-8.86737e-06
-1.92762e-06
1.05683e-05
-6.39988e-06
2.59e-05
-1.23116e-05
3.57803e-05
-1.88399e-05
4.10196e-05
-2.54275e-05
4.25158e-05
-3.17168e-05
4.10261e-05
-3.74752e-05
3.71008e-05
-4.2531e-05
3.11029e-05
-4.67226e-05
2.32672e-05
-4.98608e-05
1.37774e-05
-5.17043e-05
2.85131e-06
-5.19517e-05
-9.16768e-06
-5.02603e-05
-2.17092e-05
-4.63079e-05
-3.38694e-05
-3.9918e-05
-4.43215e-05
-3.12605e-05
-5.13001e-05
-2.11002e-05
-5.27665e-05
-1.0986e-05
-4.68825e-05
-3.16388e-06
-3.28616e-05
-1.20313e-05
-2.05963e-06
1.2628e-05
-6.76806e-06
3.06084e-05
-1.28609e-05
4.18732e-05
-1.9435e-05
4.75936e-05
-2.59324e-05
4.90132e-05
-3.20458e-05
4.71395e-05
-3.76185e-05
4.26735e-05
-4.25632e-05
3.60476e-05
-4.67994e-05
2.75034e-05
-5.02058e-05
1.71838e-05
-5.25822e-05
5.2277e-06
-5.3624e-05
-8.12585e-06
-5.29173e-05
-2.24159e-05
-4.99767e-05
-3.68101e-05
-4.4362e-05
-4.99362e-05
-3.59162e-05
-5.97459e-05
-2.51381e-05
-6.35446e-05
-1.35979e-05
-5.84228e-05
-4.0845e-06
-4.23749e-05
-1.61158e-05
-2.23057e-06
1.48585e-05
-7.17609e-06
3.5554e-05
-1.333e-05
4.80271e-05
-1.96945e-05
5.39581e-05
-2.57383e-05
5.5057e-05
-3.12434e-05
5.26446e-05
-3.61666e-05
4.75968e-05
-4.054e-05
4.04209e-05
-4.4399e-05
3.13625e-05
-4.77296e-05
2.05144e-05
-5.04207e-05
7.9188e-06
-5.22204e-05
-6.32622e-06
-5.26997e-05
-2.19365e-05
-5.12466e-05
-3.82631e-05
-4.71387e-05
-5.40441e-05
-3.97748e-05
-6.71098e-05
-2.91517e-05
-7.41677e-05
-1.65748e-05
-7.09997e-05
-5.26472e-06
-5.3685e-05
-2.13805e-05
-2.52273e-06
1.73813e-05
-7.77655e-06
4.08078e-05
-1.38606e-05
5.41111e-05
-1.96775e-05
5.9775e-05
-2.47796e-05
6.01592e-05
-2.91008e-05
5.69657e-05
-3.27616e-05
5.12576e-05
-3.59505e-05
4.36098e-05
-3.88516e-05
3.42636e-05
-4.15935e-05
2.32563e-05
-4.42016e-05
1.05269e-05
-4.65424e-05
-3.98541e-06
-4.8256e-05
-2.02229e-05
-4.86903e-05
-3.78288e-05
-4.68886e-05
-5.58458e-05
-4.17423e-05
-7.22561e-05
-3.24925e-05
-8.34174e-05
-1.97384e-05
-8.37538e-05
-6.76093e-06
-6.66625e-05
-2.81414e-05
-3.0904e-06
2.04717e-05
-8.81664e-06
4.6534e-05
-1.4644e-05
5.99385e-05
-1.94244e-05
6.45554e-05
-2.29156e-05
6.36504e-05
-2.53035e-05
5.93536e-05
-2.69358e-05
5.28899e-05
-2.81937e-05
4.48676e-05
-2.94299e-05
3.54998e-05
-3.09347e-05
2.47611e-05
-3.29013e-05
1.24936e-05
-3.53721e-05
-1.51466e-06
-3.81519e-05
-1.74431e-05
-4.06825e-05
-3.52982e-05
-4.19131e-05
-5.46152e-05
-4.02833e-05
-7.3886e-05
-3.40941e-05
-8.96066e-05
-2.26798e-05
-9.51681e-05
-8.61742e-06
-8.07249e-05
-3.67588e-05
-4.20087e-06
2.46725e-05
-1.06225e-05
5.29557e-05
-1.57978e-05
6.51137e-05
-1.8746e-05
6.75037e-05
-1.96738e-05
6.45781e-05
-1.91673e-05
5.88472e-05
-1.78713e-05
5.15939e-05
-1.63787e-05
4.3375e-05
-1.52052e-05
3.43263e-05
-1.47891e-05
2.4345e-05
-1.54865e-05
1.3191e-05
-1.75392e-05
5.38022e-07
-2.09927e-05
-1.39897e-05
-2.55374e-05
-3.07534e-05
-3.02625e-05
-4.98901e-05
-3.33931e-05
-7.07554e-05
-3.23144e-05
-9.06853e-05
-2.45639e-05
-0.000102919
-1.0792e-05
-9.44968e-05
-4.75508e-05
-6.24771e-06
3.09203e-05
-1.34074e-05
6.01154e-05
-1.69267e-05
6.8633e-05
-1.66403e-05
6.72173e-05
-1.36296e-05
6.15674e-05
-9.05245e-06
5.427e-05
-3.88358e-06
4.6425e-05
1.10348e-06
3.8388e-05
5.28912e-06
3.01407e-05
8.15136e-06
2.14827e-05
9.22938e-06
1.2113e-05
8.11717e-06
1.65023e-06
4.51286e-06
-1.03854e-05
-1.64279e-06
-2.45978e-05
-9.86065e-06
-4.16722e-05
-1.85959e-05
-6.20202e-05
-2.47174e-05
-8.45638e-05
-2.3757e-05
-0.000103879
-1.29189e-05
-0.000105335
-6.04697e-05
-9.56342e-06
4.04837e-05
-1.64303e-05
6.69823e-05
-1.58253e-05
6.8028e-05
-9.89226e-06
6.12842e-05
-1.12675e-06
5.28019e-05
8.7054e-06
4.44379e-05
1.84239e-05
3.67065e-05
2.72316e-05
2.95802e-05
3.45515e-05
2.28209e-05
3.99084e-05
1.61258e-05
4.28523e-05
9.16917e-06
4.29145e-05
1.588e-06
3.96069e-05
-7.07778e-06
3.24848e-05
-1.74757e-05
2.13914e-05
-3.05788e-05
7.06032e-06
-4.76891e-05
-7.76816e-06
-6.97353e-05
-1.7217e-05
-9.44301e-05
-1.37674e-05
-0.000108785
-7.42371e-05
-1.34344e-05
5.39181e-05
-1.5086e-05
6.86339e-05
-5.10072e-06
5.80427e-05
9.8113e-06
4.63722e-05
2.58463e-05
3.67669e-05
4.12199e-05
2.90643e-05
5.50518e-05
2.28746e-05
6.68777e-05
1.77543e-05
7.64092e-05
1.32894e-05
8.33947e-05
9.14028e-06
8.75396e-05
5.02427e-06
8.84516e-05
6.75983e-07
8.56051e-05
-4.23124e-06
7.82935e-05
-1.01641e-05
6.56878e-05
-1.79731e-05
4.72075e-05
-2.92089e-05
2.38063e-05
-4.63341e-05
7.14419e-07
-7.13382e-05
-1.02194e-05
-9.78508e-05
-8.44565e-05
-9.41357e-06
6.33317e-05
8.82188e-06
5.03985e-05
3.51881e-05
3.16765e-05
6.00502e-05
2.15101e-05
8.1504e-05
1.5313e-05
9.94788e-05
1.10895e-05
0.000114233
8.12035e-06
0.00012605
5.93684e-06
0.000135136
4.20421e-06
0.000141573
2.703e-06
0.000145311
1.28582e-06
0.000146144
-1.56678e-07
0.00014368
-1.76703e-06
0.000137217
-3.70125e-06
0.000125584
-6.33993e-06
0.00010693
-1.05552e-05
7.91053e-05
-1.85093e-05
4.23101e-05
-3.4543e-05
6.90238e-06
-6.24431e-05
-7.75541e-05
6.33317e-05
0.00011373
0.000145407
0.000166917
0.00018223
0.000193319
0.00020144
0.000207376
0.000211581
0.000214284
0.00021557
0.000215413
0.000213646
0.000209945
0.000203605
0.000193049
0.00017454
0.000139997
7.75541e-05
)
;

boundaryField
{
    movingWall
    {
        type            calculated;
        value           uniform 0;
    }
    fixedWalls
    {
        type            calculated;
        value           uniform 0;
    }
    frontAndBack
    {
        type            empty;
        value           nonuniform List<scalar> 0();
    }
}


// ************************************************************************* //
