/*--------------------------------*- C++ -*----------------------------------*\
  =========                 |
  \\      /  F ield         | OpenFOAM: The Open Source CFD Toolbox
   \\    /   O peration     | Website:  https://openfoam.org
    \\  /    A nd           | Version:  8
     \\/     M anipulation  |
\*---------------------------------------------------------------------------*/
FoamFile
{
    version     2.0;
    format      ascii;
    class       volVectorField;
    location    "1";
    object      U;
}
// * * * * * * * * * * * * * * * * * * * * * * * * * * * * * * * * * * * * * //

dimensions      [0 1 -1 0 0 0 0];

internalField   nonuniform List<vector> 
400
(
(0.00120421 -0.00120821 0)
(0.000401593 0.000673214 0)
(-0.00645288 0.00286826 0)
(-0.0179731 0.00434172 0)
(-0.0321829 0.00507069 0)
(-0.0473094 0.00518696 0)
(-0.0618474 0.00480742 0)
(-0.0745144 0.00400867 0)
(-0.0841965 0.00283839 0)
(-0.0899358 0.00134616 0)
(-0.0909896 -0.000383533 0)
(-0.0869521 -0.00220772 0)
(-0.0779062 -0.00391766 0)
(-0.0645582 -0.00525451 0)
(-0.0483016 -0.00594799 0)
(-0.0311573 -0.00577516 0)
(-0.0155501 -0.00463016 0)
(-0.00390981 -0.00259501 0)
(0.00189278 -8.65498e-05 0)
(0.0015777 0.00152494 0)
(-0.000623397 -0.000512296 0)
(-0.00896622 0.00884205 0)
(-0.0300644 0.018408 0)
(-0.060401 0.0249918 0)
(-0.0960057 0.028246 0)
(-0.133204 0.0284768 0)
(-0.168581 0.0260808 0)
(-0.199086 0.0214041 0)
(-0.222064 0.0147552 0)
(-0.235319 0.00650169 0)
(-0.237259 -0.00281698 0)
(-0.227144 -0.0124128 0)
(-0.205354 -0.0212411 0)
(-0.17361 -0.0280853 0)
(-0.135049 -0.0317373 0)
(-0.0940428 -0.0312631 0)
(-0.0556825 -0.0263122 0)
(-0.0249258 -0.017417 0)
(-0.00570071 -0.00641623 0)
(0.000312805 0.00208384 0)
(-0.00307633 0.00649927 0)
(-0.0201111 0.0303393 0)
(-0.0555933 0.052089 0)
(-0.103017 0.0669185 0)
(-0.156699 0.0740147 0)
(-0.211753 0.0738061 0)
(-0.26355 0.0670519 0)
(-0.307881 0.0545469 0)
(-0.341082 0.0371213 0)
(-0.360146 0.0158094 0)
(-0.362935 -0.00794667 0)
(-0.348481 -0.0321623 0)
(-0.317313 -0.0543201 0)
(-0.271727 -0.0715712 0)
(-0.215883 -0.0811447 0)
(-0.155605 -0.0809426 0)
(-0.0977324 -0.0702327 0)
(-0.049056 -0.0502913 0)
(-0.0155824 -0.0250365 0)
(-0.00167187 -0.00260504 0)
(-0.00527353 0.0195556 0)
(-0.0305771 0.0642521 0)
(-0.0798976 0.101452 0)
(-0.14329 0.125984 0)
(-0.213266 0.137052 0)
(-0.283967 0.135407 0)
(-0.349931 0.122284 0)
(-0.406197 0.0990349 0)
(-0.448442 0.0671487 0)
(-0.473094 0.0285014 0)
(-0.477559 -0.0143439 0)
(-0.460549 -0.0579409 0)
(-0.422462 -0.0979789 0)
(-0.365729 -0.129598 0)
(-0.295019 -0.148042 0)
(-0.217149 -0.149624 0)
(-0.14045 -0.132881 0)
(-0.0736363 -0.0996278 0)
(-0.0253449 -0.055767 0)
(-0.00346146 -0.0125744 0)
(-0.00717505 0.0379789 0)
(-0.0400322 0.109561 0)
(-0.102273 0.165078 0)
(-0.180528 0.200252 0)
(-0.265503 0.215025 0)
(-0.350486 0.210856 0)
(-0.429418 0.189651 0)
(-0.496859 0.153412 0)
(-0.548057 0.104336 0)
(-0.579006 0.0451734 0)
(-0.586639 -0.0203551 0)
(-0.569159 -0.0872735 0)
(-0.526487 -0.149333 0)
(-0.46073 -0.199388 0)
(-0.376611 -0.230254 0)
(-0.281619 -0.236061 0)
(-0.185559 -0.213949 0)
(-0.0994372 -0.165689 0)
(-0.0352405 -0.0987889 0)
(-0.00511097 -0.0275286 0)
(-0.00883862 0.0611757 0)
(-0.0485098 0.165362 0)
(-0.122577 0.242015 0)
(-0.214483 0.288745 0)
(-0.313233 0.306981 0)
(-0.411392 0.299364 0)
(-0.502497 0.268717 0)
(-0.580846 0.217787 0)
(-0.641441 0.149465 0)
(-0.67993 0.0672897 0)
(-0.692722 -0.023975 0)
(-0.6773 -0.11791 0)
(-0.632721 -0.206304 0)
(-0.560271 -0.279492 0)
(-0.464198 -0.327328 0)
(-0.35228 -0.340908 0)
(-0.235743 -0.314938 0)
(-0.128311 -0.250182 0)
(-0.0462167 -0.155231 0)
(-0.00687447 -0.0476346 0)
(-0.0103044 0.0886223 0)
(-0.056054 0.230649 0)
(-0.140723 0.331078 0)
(-0.244865 0.390245 0)
(-0.355959 0.4118 0)
(-0.466009 0.400071 0)
(-0.56836 0.359081 0)
(-0.657274 0.292402 0)
(-0.727705 0.203545 0)
(-0.775076 0.0966487 0)
(-0.795267 -0.0227452 0)
(-0.784868 -0.14703 0)
(-0.741707 -0.26617 0)
(-0.665686 -0.367841 0)
(-0.559905 -0.438371 0)
(-0.431809 -0.464743 0)
(-0.293735 -0.437739 0)
(-0.162417 -0.355616 0)
(-0.0594282 -0.227183 0)
(-0.00905 -0.0736806 0)
(-0.0115919 0.119823 0)
(-0.062674 0.304331 0)
(-0.156576 0.430838 0)
(-0.27122 0.50317 0)
(-0.392755 0.527923 0)
(-0.512831 0.511653 0)
(-0.624855 0.45989 0)
(-0.723337 0.377113 0)
(-0.803452 0.267332 0)
(-0.860611 0.135 0)
(-0.890284 -0.0139649 0)
(-0.888117 -0.171219 0)
(-0.850428 -0.325261 0)
(-0.775172 -0.461189 0)
(-0.66345 -0.56134 0)
(-0.521388 -0.60737 0)
(-0.36163 -0.584157 0)
(-0.203829 -0.48516 0)
(-0.0761038 -0.317774 0)
(-0.011966 -0.107131 0)
(-0.0127215 0.154287 0)
(-0.0683974 0.385242 0)
(-0.170018 0.539609 0)
(-0.29301 0.625454 0)
(-0.422365 0.653106 0)
(-0.549629 0.631953 0)
(-0.668598 0.569374 0)
(-0.774393 0.470851 0)
(-0.862787 0.340757 0)
(-0.929543 0.183516 0)
(-0.970017 0.00489286 0)
(-0.979079 -0.186678 0)
(-0.951458 -0.378886 0)
(-0.882697 -0.554687 0)
(-0.770948 -0.6923 0)
(-0.619612 -0.766925 0)
(-0.440121 -0.755128 0)
(-0.254194 -0.64219 0)
(-0.0975043 -0.431075 0)
(-0.0160046 -0.150156 0)
(-0.0137611 0.191568 0)
(-0.0734146 0.472195 0)
(-0.181174 0.655417 0)
(-0.309873 0.754383 0)
(-0.443467 0.784109 0)
(-0.57372 0.757529 0)
(-0.695237 0.68428 0)
(-0.804222 0.570975 0)
(-0.897543 0.422231 0)
(-0.97184 0.242079 0)
(-1.02288 0.0355395 0)
(-1.04522 -0.18969 0)
(-1.03225 -0.421476 0)
(-0.976925 -0.641582 0)
(-0.87358 -0.824607 0)
(-0.72117 -0.938647 0)
(-0.527521 -0.949414 0)
(-0.314294 -0.829375 0)
(-0.12491 -0.571786 0)
(-0.021654 -0.205677 0)
(-0.0149062 0.231409 0)
(-0.0783174 0.564166 0)
(-0.190769 0.776039 0)
(-0.322004 0.886443 0)
(-0.455046 0.916372 0)
(-0.582332 0.883202 0)
(-0.69985 0.799317 0)
(-0.805471 0.672624 0)
(-0.897771 0.507901 0)
(-0.974929 0.308469 0)
(-1.03387 0.0780169 0)
(-1.06961 -0.17741 0)
(-1.07492 -0.447141 0)
(-1.04048 -0.713301 0)
(-0.956361 -0.948297 0)
(-0.815341 -1.11353 0)
(-0.618433 -1.16183 0)
(-0.383353 -1.04718 0)
(-0.159571 -0.744643 0)
(-0.0295883 -0.277458 0)
(-0.016616 0.274088 0)
(-0.0844571 0.660673 0)
(-0.200573 0.899117 0)
(-0.33056 1.01716 0)
(-0.456704 1.04368 0)
(-0.572882 1.00164 0)
(-0.677268 0.906679 0)
(-0.770125 0.768175 0)
(-0.85241 0.591013 0)
(-0.924568 0.377577 0)
(-0.985539 0.12975 0)
(-1.03187 -0.148937 0)
(-1.05685 -0.450701 0)
(-1.04996 -0.760133 0)
(-0.997378 -1.05001 0)
(-0.884527 -1.27715 0)
(-0.702062 -1.38111 0)
(-0.457906 -1.29165 0)
(-0.20253 -0.953337 0)
(-0.0407793 -0.370255 0)
(-0.0198544 0.321058 0)
(-0.0944617 0.762339 0)
(-0.213858 1.02222 0)
(-0.337808 1.14078 0)
(-0.448513 1.15772 0)
(-0.54268 1.1029 0)
(-0.621845 0.995686 0)
(-0.689514 0.846937 0)
(-0.749691 0.661573 0)
(-0.80572 0.440908 0)
(-0.859354 0.184757 0)
(-0.90977 -0.106462 0)
(-0.952323 -0.429131 0)
(-0.977111 -0.772658 0)
(-0.967964 -1.11382 0)
(-0.903202 -1.40916 0)
(-0.760264 -1.5877 0)
(-0.530013 -1.55127 0)
(-0.254108 -1.19856 0)
(-0.0566169 -0.490013 0)
(-0.0265076 0.376092 0)
(-0.112919 0.871543 0)
(-0.235507 1.14249 0)
(-0.346339 1.24947 0)
(-0.429515 1.24726 0)
(-0.487097 1.17395 0)
(-0.525659 1.05259 0)
(-0.55289 0.895222 0)
(-0.576334 0.706539 0)
(-0.602569 0.486686 0)
(-0.636599 0.233418 0)
(-0.681058 -0.0560953 0)
(-0.73486 -0.383128 0)
(-0.791055 -0.743912 0)
(-0.834123 -1.12334 0)
(-0.837727 -1.48423 0)
(-0.765572 -1.75224 0)
(-0.584582 -1.80306 0)
(-0.312561 -1.4745 0)
(-0.0788847 -0.643786 0)
(-0.0400109 0.447164 0)
(-0.146927 0.992659 0)
(-0.270685 1.25521 0)
(-0.355584 1.33143 0)
(-0.392856 1.29677 0)
(-0.394208 1.19793 0)
(-0.373358 1.06063 0)
(-0.342929 0.897028 0)
(-0.314049 0.710898 0)
(-0.296256 0.501039 0)
(-0.29754 0.263379 0)
(-0.324082 -0.00770462 0)
(-0.379225 -0.31814 0)
(-0.461195 -0.671835 0)
(-0.559112 -1.06524 0)
(-0.647204 -1.4752 0)
(-0.679283 -1.83616 0)
(-0.595238 -2.00888 0)
(-0.370668 -1.76318 0)
(-0.108958 -0.838773 0)
(-0.0657252 0.549582 0)
(-0.204779 1.13036 0)
(-0.318405 1.3493 0)
(-0.351108 1.36691 0)
(-0.313324 1.284 0)
(-0.232467 1.15355 0)
(-0.131013 1.00087 0)
(-0.0262556 0.835889 0)
(0.0681236 0.660183 0)
(0.140924 0.470823 0)
(0.182457 0.262283 0)
(0.184021 0.0271553 0)
(0.13822 -0.243731 0)
(0.0405603 -0.560868 0)
(-0.106518 -0.933303 0)
(-0.285276 -1.35842 0)
(-0.449526 -1.79526 0)
(-0.517902 -2.11339 0)
(-0.407906 -2.02751 0)
(-0.144272 -1.08114 0)
(-0.108564 0.712259 0)
(-0.286123 1.28099 0)
(-0.349027 1.39384 0)
(-0.276168 1.31831 0)
(-0.119786 1.17538 0)
(0.0729625 1.01454 0)
(0.27294 0.854182 0)
(0.461349 0.698372 0)
(0.625071 0.544757 0)
(0.754014 0.388276 0)
(0.83922 0.222485 0)
(0.871659 0.039589 0)
(0.841741 -0.170424 0)
(0.739626 -0.421248 0)
(0.5576 -0.731399 0)
(0.297996 -1.12022 0)
(-0.00891999 -1.58597 0)
(-0.281541 -2.04369 0)
(-0.376136 -2.20117 0)
(-0.167831 -1.37417 0)
(-0.155462 0.978619 0)
(-0.340169 1.40069 0)
(-0.237182 1.30668 0)
(0.0334371 1.11498 0)
(0.35508 0.923971 0)
(0.674926 0.754504 0)
(0.96999 0.608833 0)
(1.22838 0.482054 0)
(1.44326 0.367238 0)
(1.60972 0.257613 0)
(1.72261 0.14682 0)
(1.77529 0.0282965 0)
(1.75882 -0.106039 0)
(1.66099 -0.268191 0)
(1.46591 -0.478261 0)
(1.15731 -0.769011 0)
(0.731542 -1.18091 0)
(0.228351 -1.71376 0)
(-0.173246 -2.16006 0)
(-0.11892 -1.67549 0)
(-0.0475745 1.26975 0)
(-0.07208 1.31713 0)
(0.411519 0.969168 0)
(0.958408 0.709718 0)
(1.42984 0.529487 0)
(1.82358 0.398543 0)
(2.14978 0.301243 0)
(2.41478 0.22622 0)
(2.62337 0.164656 0)
(2.77856 0.110167 0)
(2.88083 0.0580434 0)
(2.92773 0.00430418 0)
(2.91354 -0.0552906 0)
(2.82778 -0.127371 0)
(2.6526 -0.224424 0)
(2.35911 -0.373355 0)
(1.90241 -0.630509 0)
(1.22498 -1.07945 0)
(0.453041 -1.68897 0)
(0.217604 -1.70226 0)
(1.43863 0.70738 0)
(1.83615 0.626739 0)
(2.56397 0.398386 0)
(3.1382 0.251741 0)
(3.5127 0.164309 0)
(3.76998 0.109469 0)
(3.95761 0.0740314 0)
(4.09603 0.0502598 0)
(4.19622 0.0331379 0)
(4.26461 0.0195344 0)
(4.3043 0.00749962 0)
(4.3158 -0.00430493 0)
(4.29724 -0.0169573 0)
(4.24386 -0.032181 0)
(4.14586 -0.0531925 0)
(3.98208 -0.088002 0)
(3.70329 -0.158387 0)
(3.17511 -0.31622 0)
(2.3001 -0.62289 0)
(1.66867 -0.780053 0)
)
;

boundaryField
{
    movingWall
    {
        type            fixedValue;
        value           uniform (5.07527 0 0);
    }
    fixedWalls
    {
        type            noSlip;
    }
    frontAndBack
    {
        type            empty;
    }
}


// ************************************************************************* //
