/*--------------------------------*- C++ -*----------------------------------*\
  =========                 |
  \\      /  F ield         | OpenFOAM: The Open Source CFD Toolbox
   \\    /   O peration     | Website:  https://openfoam.org
    \\  /    A nd           | Version:  9
     \\/     M anipulation  |
\*---------------------------------------------------------------------------*/
FoamFile
{
    format      ascii;
    class       volVectorField;
    location    "0.04";
    object      U;
}
// * * * * * * * * * * * * * * * * * * * * * * * * * * * * * * * * * * * * * //

dimensions      [0 1 -1 0 0 0 0];

internalField   nonuniform List<vector> 
40
(
(-0.0296995 0.00338434 0)
(-0.0395424 0.00331207 0)
(-0.0483381 0.00287807 0)
(-0.0552983 0.00214733 0)
(-0.0597165 0.00118954 0)
(-0.0927016 0.0188408 0)
(-0.115828 0.0176576 0)
(-0.136132 0.0149115 0)
(-0.151909 0.0107767 0)
(-0.161593 0.00556146 0)
(-0.150737 0.0481089 0)
(-0.183988 0.0442649 0)
(-0.212697 0.03685 0)
(-0.234658 0.0261784 0)
(-0.247847 0.0129757 0)
(-0.198681 0.0876186 0)
(-0.240735 0.0795758 0)
(-0.27665 0.0655719 0)
(-0.303888 0.0460868 0)
(-0.320152 0.0223303 0)
(-0.239784 0.135971 0)
(-0.289982 0.122368 0)
(-0.332698 0.100139 0)
(-0.365132 0.0700128 0)
(-0.384784 0.0337306 0)
(-0.277464 0.192686 0)
(-0.33553 0.17246 0)
(-0.385027 0.140698 0)
(-0.422967 0.098462 0)
(-0.446727 0.0480252 0)
(-0.314757 0.257517 0)
(-0.380651 0.229836 0)
(-0.437008 0.187533 0)
(-0.480773 0.132072 0)
(-0.509327 0.0662355 0)
(-0.354916 0.330318 0)
(-0.428684 0.294436 0)
(-0.491771 0.240696 0)
(-0.54123 0.171147 0)
(-0.574545 0.0889489 0)
)
;

boundaryField
{
    movingWall
    {
        type            fixedValue;
        value           nonuniform List<vector> 0();
    }
    fixedWalls
    {
        type            noSlip;
    }
    frontAndBack
    {
        type            empty;
    }
    procBoundary2to0
    {
        type            processor;
        value           nonuniform List<vector> 8((-0.0180036 0.00265121 0) (-0.0632642 0.0165493 0) (-0.106514 0.0438604 0) (-0.141287 0.081695 0) (-0.170352 0.128557 0) (-0.196696 0.183694 0) (-0.222947 0.246684 0) (-0.252059 0.317519 0));
    }
    procBoundary2to3
    {
        type            processor;
        value           nonuniform List<vector> 5((-0.369192 0.376555 0) (-0.443495 0.33439 0) (-0.506252 0.273022 0) (-0.555009 0.194998 0) (-0.588013 0.103808 0));
    }
    procBoundary2to5
    {
        type            processor;
        value           nonuniform List<vector> 8((-0.0558181 0.000130585 0) (-0.150702 -0.000125288 0) (-0.230694 -0.00140802 0) (-0.297552 -0.00349125 0) (-0.357673 -0.00573088 0) (-0.416123 -0.00710342 0) (-0.476077 -0.00643581 0) (-0.539155 -0.00289891 0));
    }
}


// ************************************************************************* //
