/*--------------------------------*- C++ -*----------------------------------*\
  =========                 |
  \\      /  F ield         | OpenFOAM: The Open Source CFD Toolbox
   \\    /   O peration     | Website:  https://openfoam.org
    \\  /    A nd           | Version:  8
     \\/     M anipulation  |
\*---------------------------------------------------------------------------*/
FoamFile
{
    version     2.0;
    format      ascii;
    class       volScalarField;
    location    "1";
    object      p;
}
// * * * * * * * * * * * * * * * * * * * * * * * * * * * * * * * * * * * * * //

dimensions      [0 2 -2 0 0 0 0];

internalField   nonuniform List<scalar> 
400
(
-0.0992088
-0.198226
-0.251389
-0.276776
-0.280415
-0.268202
-0.243261
-0.20618
-0.159603
-0.106525
-0.0491768
0.0102561
0.0690071
0.123933
0.172161
0.211643
0.241383
0.261369
0.27238
0.276042
-0.198613
-0.2391
-0.268638
-0.283795
-0.282784
-0.26793
-0.241587
-0.204446
-0.158695
-0.106691
-0.0502519
0.00859858
0.0670795
0.121916
0.170039
0.209229
0.238416
0.257527
0.266926
0.266573
-0.250327
-0.268542
-0.280352
-0.284758
-0.277431
-0.260082
-0.23401
-0.198911
-0.156328
-0.108044
-0.0552043
0.000728861
0.0571703
0.110616
0.157519
0.19523
0.222567
0.239673
0.247113
0.24536
-0.273344
-0.280846
-0.280853
-0.276659
-0.264034
-0.244905
-0.220155
-0.188656
-0.151323
-0.109322
-0.0628888
-0.0125436
0.0396252
0.0899802
0.134421
0.169737
0.194494
0.20896
0.214046
0.21079
-0.278177
-0.27921
-0.271761
-0.261169
-0.244208
-0.223657
-0.200569
-0.173247
-0.142121
-0.108036
-0.070437
-0.0286706
0.0160947
0.0604751
0.100091
0.131343
0.152566
0.163937
0.166669
0.162195
-0.270493
-0.267787
-0.255876
-0.241194
-0.221254
-0.199875
-0.178773
-0.155882
-0.13113
-0.105561
-0.0784222
-0.0479383
-0.0138696
0.021345
0.0536228
0.0792713
0.0963475
0.104641
0.105609
0.100861
-0.25592
-0.251983
-0.238412
-0.222364
-0.201392
-0.180101
-0.161307
-0.142894
-0.123798
-0.105718
-0.0888421
-0.070935
-0.0500822
-0.0268996
-0.0042354
0.0146852
0.0276478
0.0336372
0.0340512
0.0303288
-0.239789
-0.236947
-0.224653
-0.210439
-0.191129
-0.171403
-0.155452
-0.142063
-0.128011
-0.115333
-0.10649
-0.100199
-0.0931841
-0.083497
-0.0716449
-0.0595969
-0.0497397
-0.0444091
-0.0429464
-0.0446998
-0.22453
-0.225044
-0.217037
-0.20836
-0.194588
-0.179247
-0.167297
-0.160855
-0.153081
-0.14446
-0.140328
-0.142265
-0.146877
-0.149584
-0.14769
-0.14106
-0.132032
-0.124827
-0.120651
-0.120641
-0.208371
-0.213932
-0.212895
-0.213574
-0.210466
-0.204685
-0.198812
-0.202618
-0.205506
-0.202914
-0.201649
-0.207562
-0.219161
-0.230294
-0.234993
-0.230439
-0.218579
-0.205997
-0.197289
-0.196872
-0.185174
-0.19632
-0.204783
-0.218555
-0.231879
-0.244255
-0.248231
-0.265601
-0.285479
-0.295149
-0.299084
-0.306813
-0.320506
-0.33446
-0.340552
-0.333319
-0.313862
-0.291181
-0.274845
-0.274639
-0.145769
-0.162358
-0.184452
-0.216273
-0.251099
-0.293218
-0.314572
-0.347767
-0.388718
-0.417755
-0.432919
-0.444247
-0.457502
-0.469381
-0.471741
-0.457318
-0.42553
-0.386729
-0.356204
-0.352174
-0.0813214
-0.104365
-0.148155
-0.207459
-0.266988
-0.34752
-0.398345
-0.450802
-0.512062
-0.562752
-0.59421
-0.612829
-0.6254
-0.631902
-0.626978
-0.603346
-0.556913
-0.495814
-0.439215
-0.418835
0.0129438
-0.0209882
-0.0966047
-0.198044
-0.286122
-0.398753
-0.487471
-0.567541
-0.649717
-0.721508
-0.771881
-0.799631
-0.807625
-0.801617
-0.784553
-0.752141
-0.693732
-0.60793
-0.510344
-0.452976
0.138421
0.0835591
-0.0260014
-0.175055
-0.303579
-0.426106
-0.541801
-0.658307
-0.774592
-0.878174
-0.95771
-1.00014
-0.984003
-0.94176
-0.896929
-0.85256
-0.788645
-0.685163
-0.539889
-0.425949
0.302283
0.209213
0.0779103
-0.0843359
-0.266001
-0.397521
-0.527833
-0.690062
-0.875612
-1.05244
-1.18742
-1.24068
-1.18329
-1.05204
-0.918238
-0.826722
-0.753998
-0.65217
-0.480633
-0.310234
0.525202
0.382702
0.239214
0.116647
-0.0927312
-0.292358
-0.515625
-0.783118
-1.07199
-1.334
-1.51664
-1.57738
-1.49702
-1.26431
-0.955227
-0.669213
-0.483474
-0.390429
-0.26557
-0.0890262
0.837448
0.690197
0.543536
0.366783
0.0751874
-0.270024
-0.665484
-1.06777
-1.41647
-1.67923
-1.84529
-1.90915
-1.86028
-1.66551
-1.27462
-0.695742
-0.132312
0.200017
0.247473
0.314878
1.45466
1.25558
0.951775
0.481989
-0.106568
-0.645647
-1.08666
-1.44617
-1.73118
-1.94239
-2.08163
-2.14875
-2.13426
-2.00988
-1.72039
-1.17966
-0.311084
0.604525
1.10276
1.19939
2.10013
1.62316
0.83031
-0.00155276
-0.585126
-1.00297
-1.3421
-1.62806
-1.86109
-2.03903
-2.16174
-2.22793
-2.2291
-2.14482
-1.94205
-1.57573
-0.944946
0.126258
1.46174
2.1897
)
;

boundaryField
{
    movingWall
    {
        type            zeroGradient;
    }
    fixedWalls
    {
        type            zeroGradient;
    }
    frontAndBack
    {
        type            empty;
    }
}


// ************************************************************************* //
