/*--------------------------------*- C++ -*----------------------------------*\
  =========                 |
  \\      /  F ield         | OpenFOAM: The Open Source CFD Toolbox
   \\    /   O peration     | Website:  https://openfoam.org
    \\  /    A nd           | Version:  8
     \\/     M anipulation  |
\*---------------------------------------------------------------------------*/
FoamFile
{
    version     2.0;
    format      ascii;
    class       surfaceScalarField;
    location    "1";
    object      phi;
}
// * * * * * * * * * * * * * * * * * * * * * * * * * * * * * * * * * * * * * //

dimensions      [0 3 -1 0 0 0 0];

internalField   nonuniform List<scalar> 
760
(
6.40962e-08
-6.40679e-08
-1.3386e-07
1.97957e-07
-6.0142e-07
4.67563e-07
-1.24983e-06
6.48405e-07
-1.98631e-06
7.3648e-07
-2.7298e-06
7.43498e-07
-3.41142e-06
6.81613e-07
-3.97176e-06
5.60346e-07
-4.35916e-06
3.87391e-07
-4.53083e-06
1.71674e-07
-4.45756e-06
-7.32748e-08
-4.13063e-06
-3.26929e-07
-3.56919e-06
-5.61439e-07
-2.82541e-06
-7.43772e-07
-1.98476e-06
-8.40655e-07
-1.15896e-06
-8.258e-07
-4.70616e-07
-6.88347e-07
-2.98162e-08
-4.408e-07
1.0221e-07
-1.32024e-07
1.02213e-07
-1.96235e-07
1.32159e-07
-9.66128e-07
9.67858e-07
-2.25681e-06
1.75825e-06
-3.90617e-06
2.29777e-06
-5.72819e-06
2.55849e-06
-7.54411e-06
2.55942e-06
-9.19245e-06
2.32996e-06
-1.05311e-05
1.89896e-06
-1.14387e-05
1.29507e-06
-1.18205e-05
5.53426e-07
-1.16175e-05
-2.76229e-07
-1.08202e-05
-1.1243e-06
-9.48037e-06
-1.90123e-06
-7.71929e-06
-2.50486e-06
-5.72477e-06
-2.83518e-06
-3.73456e-06
-2.81602e-06
-2.00267e-06
-2.42024e-06
-7.5017e-07
-1.6933e-06
-1.03262e-07
-7.78941e-07
-1.04654e-09
-5.0614e-07
6.38305e-07
-1.8924e-06
2.35412e-06
-3.96731e-06
3.83316e-06
-6.49044e-06
4.8209e-06
-9.209e-06
5.27705e-06
-1.18808e-05
5.23126e-06
-1.42846e-05
4.73371e-06
-1.6224e-05
3.83834e-06
-1.75322e-05
2.60333e-06
-1.80805e-05
1.10167e-06
-1.77905e-05
-5.66197e-07
-1.66507e-05
-2.26413e-06
-1.4731e-05
-3.82091e-06
-1.21925e-05
-5.04332e-06
-9.28493e-06
-5.74277e-06
-6.32644e-06
-5.77451e-06
-3.66284e-06
-5.08384e-06
-1.60755e-06
-3.74859e-06
-3.71334e-07
-2.01516e-06
-3.72379e-07
-7.89458e-07
1.42777e-06
-2.76855e-06
4.3332e-06
-5.58773e-06
6.65234e-06
-8.91281e-06
8.14598e-06
-1.24284e-05
8.79264e-06
-1.58447e-05
8.64754e-06
-1.89002e-05
7.78927e-06
-2.13637e-05
6.3018e-06
-2.30377e-05
4.27736e-06
-2.37679e-05
1.83181e-06
-2.34565e-05
-8.77611e-07
-2.20805e-05
-3.64012e-06
-1.97099e-05
-6.19149e-06
-1.65217e-05
-8.2315e-06
-1.28028e-05
-9.46164e-06
-8.9341e-06
-9.64326e-06
-5.34915e-06
-8.66879e-06
-2.46928e-06
-6.62846e-06
-6.26215e-07
-3.85822e-06
-9.98593e-07
-1.04186e-06
2.46962e-06
-3.56996e-06
6.86131e-06
-7.08326e-06
1.01656e-05
-1.11507e-05
1.22135e-05
-1.5397e-05
1.30389e-05
-1.94937e-05
1.27442e-05
-2.31521e-05
1.14477e-05
-2.61185e-05
9.26815e-06
-2.81739e-05
6.33273e-06
-2.9141e-05
2.79898e-06
-2.88978e-05
-1.12082e-06
-2.73964e-05
-5.14151e-06
-2.46866e-05
-8.90131e-06
-2.09383e-05
-1.19798e-05
-1.64561e-05
-1.39439e-05
-1.16748e-05
-1.44245e-05
-7.12493e-06
-1.32187e-05
-3.36276e-06
-1.03906e-05
-8.77075e-07
-6.34391e-06
-1.87567e-06
-1.26683e-06
3.73645e-06
-4.29437e-06
9.88885e-06
-8.44421e-06
1.43155e-05
-1.31936e-05
1.69628e-05
-1.81124e-05
1.79577e-05
-2.2842e-05
1.74739e-05
-2.70769e-05
1.56826e-05
-3.05505e-05
1.27418e-05
-3.30294e-05
8.81159e-06
-3.43145e-05
4.08411e-06
-3.42527e-05
-1.18268e-06
-3.27563e-05
-6.63784e-06
-2.98329e-05
-1.18247e-05
-2.56194e-05
-1.61933e-05
-2.04151e-05
-1.91482e-05
-1.46978e-05
-2.01418e-05
-9.10438e-06
-1.88121e-05
-4.35874e-06
-1.51363e-05
-1.15184e-06
-9.5508e-06
-3.02751e-06
-1.46671e-06
5.20317e-06
-4.94105e-06
1.33632e-05
-9.66142e-06
1.90358e-05
-1.50218e-05
2.23232e-05
-2.05452e-05
2.34811e-05
-2.58525e-05
2.27811e-05
-3.0632e-05
2.04621e-05
-3.46153e-05
1.67252e-05
-3.75621e-05
1.17584e-05
-3.92548e-05
5.7768e-06
-3.95046e-05
-9.32861e-07
-3.8171e-05
-7.97147e-06
-3.51957e-05
-1.48e-05
-3.06519e-05
-2.07372e-05
-2.48006e-05
-2.49995e-05
-1.81394e-05
-2.6803e-05
-1.14111e-05
-2.55404e-05
-5.54088e-06
-2.10065e-05
-1.48285e-06
-1.36088e-05
-4.51036e-06
-1.64216e-06
6.84533e-06
-5.50701e-06
1.7228e-05
-1.07204e-05
2.42492e-05
-1.66011e-05
2.8204e-05
-2.26349e-05
2.95149e-05
-2.84338e-05
2.858e-05
-3.36935e-05
2.57218e-05
-3.81576e-05
2.11892e-05
-4.1591e-05
1.51918e-05
-4.37659e-05
7.95165e-06
-4.44598e-05
-2.38979e-07
-4.34709e-05
-8.96036e-06
-4.06544e-05
-1.76164e-05
-3.59839e-05
-2.54077e-05
-2.96361e-05
-3.13473e-05
-2.20826e-05
-3.43565e-05
-1.4151e-05
-3.3472e-05
-6.99279e-06
-2.81647e-05
-1.90416e-06
-1.86975e-05
-6.41451e-06
-1.79395e-06
8.63928e-06
-5.99023e-06
2.14243e-05
-1.1605e-05
2.98639e-05
-1.78869e-05
3.44859e-05
-2.42945e-05
3.59225e-05
-3.04456e-05
3.47312e-05
-3.60609e-05
3.13371e-05
-4.09139e-05
2.60423e-05
-4.47938e-05
1.90717e-05
-4.74788e-05
1.06366e-05
-4.87246e-05
1.0068e-06
-4.82707e-05
-9.41427e-06
-4.58722e-05
-2.00149e-05
-4.13677e-05
-2.99121e-05
-3.47901e-05
-3.7925e-05
-2.65118e-05
-4.26347e-05
-1.73855e-05
-4.25982e-05
-8.78883e-06
-3.67614e-05
-2.45138e-06
-2.50349e-05
-8.86589e-06
-1.92736e-06
1.05666e-05
-6.39902e-06
2.5896e-05
-1.23099e-05
3.57749e-05
-1.88373e-05
4.10133e-05
-2.5424e-05
4.25092e-05
-3.17123e-05
4.10195e-05
-3.74698e-05
3.70945e-05
-4.25246e-05
3.10972e-05
-4.67153e-05
2.32624e-05
-4.98527e-05
1.3774e-05
-5.16955e-05
2.8496e-06
-5.19424e-05
-9.1673e-06
-5.0251e-05
-2.17064e-05
-4.6299e-05
-3.38641e-05
-3.99101e-05
-4.43139e-05
-3.12541e-05
-5.12907e-05
-2.10958e-05
-5.27565e-05
-1.09837e-05
-4.68735e-05
-3.16324e-06
-3.28554e-05
-1.20291e-05
-2.05939e-06
1.2626e-05
-6.76727e-06
3.06039e-05
-1.28594e-05
4.1867e-05
-1.94326e-05
4.75865e-05
-2.59292e-05
4.90057e-05
-3.20416e-05
4.7132e-05
-3.76134e-05
4.26663e-05
-4.25572e-05
3.60409e-05
-4.67925e-05
2.74977e-05
-5.0198e-05
1.71795e-05
-5.25736e-05
5.2252e-06
-5.36148e-05
-8.12609e-06
-5.29078e-05
-2.24134e-05
-4.99672e-05
-3.68047e-05
-4.43532e-05
-4.99279e-05
-3.59088e-05
-5.97351e-05
-2.51328e-05
-6.35325e-05
-1.3595e-05
-5.84114e-05
-4.08363e-06
-4.23667e-05
-1.61128e-05
-2.23035e-06
1.48564e-05
-7.17538e-06
3.55489e-05
-1.33286e-05
4.80203e-05
-1.96924e-05
5.39503e-05
-2.57355e-05
5.50488e-05
-3.12398e-05
5.26362e-05
-3.61623e-05
4.75888e-05
-4.05348e-05
4.04134e-05
-4.4393e-05
3.1356e-05
-4.77228e-05
2.05092e-05
-5.0413e-05
7.91545e-06
-5.22119e-05
-6.32723e-06
-5.26906e-05
-2.19347e-05
-5.12373e-05
-3.8258e-05
-4.71296e-05
-5.40355e-05
-3.97667e-05
-6.7098e-05
-2.91455e-05
-7.41537e-05
-1.65712e-05
-7.09857e-05
-5.26355e-06
-5.36743e-05
-2.13763e-05
-2.52254e-06
1.73789e-05
-7.77591e-06
4.08023e-05
-1.38594e-05
5.41037e-05
-1.96757e-05
5.97666e-05
-2.47773e-05
6.01504e-05
-2.9098e-05
5.69569e-05
-3.27581e-05
5.1249e-05
-3.59464e-05
4.36017e-05
-3.88469e-05
3.42565e-05
-4.15881e-05
2.32504e-05
-4.41955e-05
1.05228e-05
-4.65355e-05
-3.98722e-06
-4.82483e-05
-2.02219e-05
-4.8682e-05
-3.78244e-05
-4.688e-05
-5.58375e-05
-4.17341e-05
-7.22439e-05
-3.24858e-05
-8.34021e-05
-1.97341e-05
-8.37374e-05
-6.75941e-06
-6.6649e-05
-2.81357e-05
-3.09019e-06
2.04691e-05
-8.816e-06
4.65281e-05
-1.46429e-05
5.99307e-05
-1.94229e-05
6.45466e-05
-2.29138e-05
6.36412e-05
-2.53014e-05
5.93445e-05
-2.69335e-05
5.28811e-05
-2.81911e-05
4.48593e-05
-2.9427e-05
3.54923e-05
-3.09314e-05
2.47548e-05
-3.28975e-05
1.2489e-05
-3.53676e-05
-1.51713e-06
-3.81466e-05
-1.74429e-05
-4.06764e-05
-3.52946e-05
-4.19062e-05
-5.46077e-05
-4.02759e-05
-7.38741e-05
-3.40874e-05
-8.95906e-05
-2.2675e-05
-9.51498e-05
-8.61547e-06
-8.07085e-05
-3.67512e-05
-4.20054e-06
2.46697e-05
-1.06217e-05
5.29493e-05
-1.57966e-05
6.51055e-05
-1.87446e-05
6.74947e-05
-1.96723e-05
6.45689e-05
-1.9166e-05
5.88381e-05
-1.78701e-05
5.15852e-05
-1.63777e-05
4.33669e-05
-1.52044e-05
3.4319e-05
-1.47884e-05
2.43388e-05
-1.54857e-05
1.31863e-05
-1.7538e-05
5.35203e-07
-2.09908e-05
-1.39901e-05
-2.55346e-05
-3.07508e-05
-3.02585e-05
-4.98838e-05
-3.33879e-05
-7.07448e-05
-3.23086e-05
-9.06699e-05
-2.4559e-05
-0.000102899
-1.07896e-05
-9.44779e-05
-4.75408e-05
-6.2471e-06
3.09168e-05
-1.34061e-05
6.01083e-05
-1.69251e-05
6.86245e-05
-1.66388e-05
6.72084e-05
-1.36284e-05
6.15586e-05
-9.05186e-06
5.42615e-05
-3.88371e-06
4.6417e-05
1.10258e-06
3.83806e-05
5.28747e-06
3.01342e-05
8.14908e-06
2.14772e-05
9.22666e-06
1.21087e-05
8.11433e-06
1.64754e-06
4.51032e-06
-1.03861e-05
-1.64449e-06
-2.4596e-05
-9.8609e-06
-4.16674e-05
-1.85942e-05
-6.20114e-05
-2.47139e-05
-8.45502e-05
-2.37529e-05
-0.00010386
-1.29163e-05
-0.000105314
-6.04571e-05
-9.56224e-06
4.0479e-05
-1.64282e-05
6.69743e-05
-1.58231e-05
6.80194e-05
-9.89063e-06
6.12759e-05
-1.12615e-06
5.27941e-05
8.70471e-06
4.44307e-05
1.84218e-05
3.66999e-05
2.72281e-05
2.95744e-05
3.45465e-05
2.28157e-05
3.99022e-05
1.61215e-05
4.2845e-05
9.16589e-06
4.29066e-05
1.58593e-06
3.95989e-05
-7.07839e-06
3.24774e-05
-1.74745e-05
2.13854e-05
-3.05754e-05
7.05675e-06
-4.76828e-05
-7.76869e-06
-6.97248e-05
-1.72149e-05
-9.44142e-05
-1.3765e-05
-0.000108764
-7.42221e-05
-1.34323e-05
5.39113e-05
-1.50831e-05
6.86251e-05
-5.09872e-06
5.8035e-05
9.8116e-06
4.63656e-05
2.58446e-05
3.67611e-05
4.12159e-05
2.90593e-05
5.50456e-05
2.28703e-05
6.68694e-05
1.77505e-05
7.63989e-05
1.32862e-05
8.33826e-05
9.13773e-06
8.75261e-05
5.02239e-06
8.84372e-05
6.74867e-07
8.55903e-05
-4.23147e-06
7.82791e-05
-1.01633e-05
6.56747e-05
-1.7971e-05
4.7197e-05
-2.92051e-05
2.37997e-05
-4.63275e-05
7.12449e-07
-7.13269e-05
-1.02183e-05
-9.78336e-05
-8.44404e-05
-9.41117e-06
6.33225e-05
8.82242e-06
5.03915e-05
3.51853e-05
3.16721e-05
6.00441e-05
2.15068e-05
8.14948e-05
1.53104e-05
9.94667e-05
1.10875e-05
0.000114218
8.11866e-06
0.000126033
5.93547e-06
0.000135116
4.20312e-06
0.000141552
2.70218e-06
0.000145289
1.28528e-06
0.000146121
-1.56948e-07
0.000143656
-1.76695e-06
0.000137194
-3.7008e-06
0.000125562
-6.33907e-06
0.000106911
-1.05538e-05
7.90898e-05
-1.85067e-05
4.23006e-05
-3.45378e-05
6.89976e-06
-6.24327e-05
-7.75407e-05
6.33225e-05
0.000113714
0.000145386
0.000166893
0.000182203
0.000193291
0.000201409
0.000207345
0.000211548
0.00021425
0.000215535
0.000215378
0.000213612
0.000209911
0.000203572
0.000193018
0.000174511
0.000139973
7.75407e-05
)
;

boundaryField
{
    movingWall
    {
        type            calculated;
        value           uniform 0;
    }
    fixedWalls
    {
        type            calculated;
        value           uniform 0;
    }
    frontAndBack
    {
        type            empty;
        value           nonuniform List<scalar> 0();
    }
}


// ************************************************************************* //
