/*--------------------------------*- C++ -*----------------------------------*\
  =========                 |
  \\      /  F ield         | OpenFOAM: The Open Source CFD Toolbox
   \\    /   O peration     | Website:  https://openfoam.org
    \\  /    A nd           | Version:  8
     \\/     M anipulation  |
\*---------------------------------------------------------------------------*/
FoamFile
{
    version     2.0;
    format      ascii;
    class       volVectorField;
    location    "1";
    object      U;
}
// * * * * * * * * * * * * * * * * * * * * * * * * * * * * * * * * * * * * * //

dimensions      [0 1 -1 0 0 0 0];

internalField   nonuniform List<vector> 
400
(
(0.00120506 -0.00120688 0)
(0.000403164 0.000673742 0)
(-0.00645075 0.00286798 0)
(-0.0179691 0.004341 0)
(-0.0321762 0.00506977 0)
(-0.0472999 0.00518597 0)
(-0.061835 0.00480646 0)
(-0.0744994 0.00400781 0)
(-0.0841794 0.00283773 0)
(-0.0899174 0.00134579 0)
(-0.0909708 -0.000383526 0)
(-0.0869341 -0.00220729 0)
(-0.07789 -0.00391682 0)
(-0.064545 -0.00525334 0)
(-0.0482921 -0.00594667 0)
(-0.0311515 -0.00577392 0)
(-0.0155476 -0.00462924 0)
(-0.00390957 -0.0025946 0)
(0.00189211 -8.66721e-05 0)
(0.00157732 0.00152457 0)
(-0.000622553 -0.000510607 0)
(-0.00896304 0.00884141 0)
(-0.0300571 0.0184049 0)
(-0.0603879 0.0249871 0)
(-0.0959857 0.0282406 0)
(-0.133176 0.0284712 0)
(-0.168547 0.0260755 0)
(-0.199045 0.0213996 0)
(-0.222019 0.0147519 0)
(-0.23527 0.00650004 0)
(-0.237209 -0.00281664 0)
(-0.227096 -0.0124102 0)
(-0.205311 -0.0212366 0)
(-0.173575 -0.0280791 0)
(-0.135022 -0.0317303 0)
(-0.0940245 -0.0312564 0)
(-0.0556723 -0.0263068 0)
(-0.0249218 -0.0174138 0)
(-0.00570015 -0.00641546 0)
(0.000312586 0.00208312 0)
(-0.00307534 0.00649858 0)
(-0.0201061 0.0303339 0)
(-0.0555808 0.0520791 0)
(-0.102995 0.0669056 0)
(-0.156666 0.0740002 0)
(-0.211709 0.0737914 0)
(-0.263496 0.0670382 0)
(-0.307818 0.0545354 0)
(-0.341011 0.0371131 0)
(-0.360071 0.0158055 0)
(-0.362859 -0.00794552 0)
(-0.348408 -0.0321557 0)
(-0.317246 -0.0543084 0)
(-0.27167 -0.0715555 0)
(-0.215839 -0.081127 0)
(-0.155574 -0.0809252 0)
(-0.0977135 -0.0702182 0)
(-0.0490471 -0.0502817 0)
(-0.01558 -0.0250325 0)
(-0.00167175 -0.00260521 0)
(-0.00527222 0.0195517 0)
(-0.0305702 0.0642392 0)
(-0.0798803 0.101432 0)
(-0.143259 0.125959 0)
(-0.213222 0.137025 0)
(-0.283909 0.13538 0)
(-0.349859 0.122259 0)
(-0.406113 0.099014 0)
(-0.448349 0.0671338 0)
(-0.472995 0.0284942 0)
(-0.477458 -0.0143419 0)
(-0.460451 -0.0579291 0)
(-0.422372 -0.0979579 0)
(-0.365651 -0.12957 0)
(-0.294957 -0.14801 0)
(-0.217104 -0.149592 0)
(-0.140422 -0.132853 0)
(-0.0736222 -0.0996082 0)
(-0.0253405 -0.0557572 0)
(-0.00346103 -0.012573 0)
(-0.00717339 0.0379708 0)
(-0.0400234 0.109539 0)
(-0.102251 0.165045 0)
(-0.18049 0.200212 0)
(-0.265448 0.214982 0)
(-0.350414 0.210814 0)
(-0.42933 0.189612 0)
(-0.496756 0.153379 0)
(-0.547942 0.104312 0)
(-0.578884 0.0451617 0)
(-0.586513 -0.0203528 0)
(-0.569037 -0.0872562 0)
(-0.526372 -0.149301 0)
(-0.460629 -0.199345 0)
(-0.376529 -0.230204 0)
(-0.281558 -0.236009 0)
(-0.18552 -0.213903 0)
(-0.099417 -0.165656 0)
(-0.0352339 -0.0987707 0)
(-0.00511022 -0.0275246 0)
(-0.00883663 0.0611625 0)
(-0.0484994 0.165328 0)
(-0.122551 0.241966 0)
(-0.214439 0.288687 0)
(-0.31317 0.30692 0)
(-0.411309 0.299303 0)
(-0.502395 0.268661 0)
(-0.580726 0.21774 0)
(-0.641307 0.14943 0)
(-0.679786 0.0672716 0)
(-0.692572 -0.0239737 0)
(-0.677152 -0.117887 0)
(-0.632581 -0.206261 0)
(-0.560146 -0.279431 0)
(-0.464093 -0.327255 0)
(-0.352201 -0.340833 0)
(-0.235691 -0.31487 0)
(-0.128283 -0.25013 0)
(-0.0462074 -0.155201 0)
(-0.00687333 -0.0476269 0)
(-0.0103021 0.0886032 0)
(-0.0560424 0.230602 0)
(-0.140695 0.331011 0)
(-0.244816 0.390168 0)
(-0.355888 0.411718 0)
(-0.465916 0.39999 0)
(-0.568245 0.359005 0)
(-0.65714 0.292338 0)
(-0.727554 0.203497 0)
(-0.774912 0.0966216 0)
(-0.795095 -0.0227472 0)
(-0.784695 -0.147004 0)
(-0.741539 -0.266116 0)
(-0.665533 -0.367762 0)
(-0.559774 -0.438274 0)
(-0.431708 -0.464639 0)
(-0.293667 -0.437641 0)
(-0.16238 -0.355539 0)
(-0.0594154 -0.227137 0)
(-0.00904834 -0.0736677 0)
(-0.0115894 0.119797 0)
(-0.0626616 0.304269 0)
(-0.156546 0.430752 0)
(-0.271168 0.50307 0)
(-0.39268 0.527817 0)
(-0.512732 0.511549 0)
(-0.624733 0.459793 0)
(-0.723193 0.377029 0)
(-0.803288 0.267267 0)
(-0.86043 0.134961 0)
(-0.890092 -0.0139733 0)
(-0.88792 -0.171192 0)
(-0.850234 -0.325198 0)
(-0.774991 -0.461091 0)
(-0.663292 -0.561216 0)
(-0.521262 -0.607233 0)
(-0.361542 -0.584025 0)
(-0.20378 -0.485052 0)
(-0.0760863 -0.317707 0)
(-0.0119635 -0.107111 0)
(-0.0127191 0.154255 0)
(-0.0683847 0.385165 0)
(-0.169987 0.539503 0)
(-0.292958 0.625331 0)
(-0.422289 0.652977 0)
(-0.549528 0.631825 0)
(-0.668473 0.569254 0)
(-0.774244 0.470745 0)
(-0.862616 0.340673 0)
(-0.929352 0.183461 0)
(-0.96981 0.00487421 0)
(-0.978863 -0.186654 0)
(-0.951241 -0.378817 0)
(-0.882489 -0.554572 0)
(-0.770761 -0.692148 0)
(-0.619458 -0.76675 0)
(-0.440011 -0.754954 0)
(-0.25413 -0.642043 0)
(-0.0974804 -0.43098 0)
(-0.016001 -0.150126 0)
(-0.0137588 0.191528 0)
(-0.0734023 0.472102 0)
(-0.181144 0.655291 0)
(-0.309821 0.754238 0)
(-0.443393 0.783956 0)
(-0.573621 0.757376 0)
(-0.695114 0.684135 0)
(-0.804075 0.570846 0)
(-0.897372 0.422125 0)
(-0.971647 0.242005 0)
(-1.02267 0.0355063 0)
(-1.045 -0.189674 0)
(-1.03202 -0.421405 0)
(-0.976696 -0.641454 0)
(-0.873367 -0.824428 0)
(-0.720988 -0.938433 0)
(-0.527385 -0.949192 0)
(-0.314212 -0.82918 0)
(-0.124878 -0.571655 0)
(-0.0216487 -0.205634 0)
(-0.014904 0.231364 0)
(-0.0783061 0.564059 0)
(-0.190741 0.775894 0)
(-0.321956 0.886277 0)
(-0.454977 0.916196 0)
(-0.582241 0.883026 0)
(-0.699736 0.799148 0)
(-0.805334 0.672471 0)
(-0.897611 0.507771 0)
(-0.974746 0.308373 0)
(-1.03366 0.0779652 0)
(-1.06939 -0.177407 0)
(-1.07468 -0.447074 0)
(-1.04024 -0.713167 0)
(-0.95613 -0.948097 0)
(-0.815136 -1.11328 0)
(-0.618272 -1.16156 0)
(-0.383251 -1.04693 0)
(-0.159528 -0.744466 0)
(-0.0295804 -0.277395 0)
(-0.0166141 0.274037 0)
(-0.084447 0.660553 0)
(-0.200548 0.898954 0)
(-0.330518 1.01697 0)
(-0.456644 1.04348 0)
(-0.572802 1.00144 0)
(-0.677169 0.906488 0)
(-0.770006 0.767999 0)
(-0.852271 0.590861 0)
(-0.924407 0.377459 0)
(-0.985357 0.129678 0)
(-1.03166 -0.148952 0)
(-1.05663 -0.450646 0)
(-1.04973 -0.76 0)
(-0.997144 -1.0498 0)
(-0.884308 -1.27686 0)
(-0.70188 -1.38079 0)
(-0.457782 -1.29134 0)
(-0.202474 -0.953103 0)
(-0.0407679 -0.370168 0)
(-0.0198526 0.321002 0)
(-0.0944524 0.762207 0)
(-0.213836 1.02204 0)
(-0.337772 1.14057 0)
(-0.448463 1.1575 0)
(-0.542615 1.10269 0)
(-0.621766 0.995478 0)
(-0.689421 0.846743 0)
(-0.749582 0.661402 0)
(-0.805594 0.44077 0)
(-0.859211 0.184664 0)
(-0.909607 -0.106497 0)
(-0.95214 -0.429094 0)
(-0.976909 -0.772537 0)
(-0.96775 -1.1136 0)
(-0.902989 -1.40885 0)
(-0.760073 -1.58733 0)
(-0.529871 -1.55089 0)
(-0.254036 -1.19826 0)
(-0.0566004 -0.489892 0)
(-0.0265053 0.376031 0)
(-0.112909 0.871401 0)
(-0.235486 1.1423 0)
(-0.346307 1.24925 0)
(-0.429474 1.24704 0)
(-0.487048 1.17373 0)
(-0.525603 1.05237 0)
(-0.552827 0.895017 0)
(-0.576264 0.706355 0)
(-0.602491 0.486534 0)
(-0.63651 0.233308 0)
(-0.680954 -0.0561497 0)
(-0.734738 -0.383112 0)
(-0.790911 -0.74381 0)
(-0.833958 -1.12314 0)
(-0.837545 -1.48393 0)
(-0.76539 -1.75185 0)
(-0.584431 -1.80263 0)
(-0.312473 -1.47412 0)
(-0.0788614 -0.643622 0)
(-0.0400069 0.447097 0)
(-0.146913 0.992506 0)
(-0.27066 1.25501 0)
(-0.35555 1.33121 0)
(-0.39282 1.29654 0)
(-0.394172 1.1977 0)
(-0.373325 1.06041 0)
(-0.342901 0.89682 0)
(-0.314026 0.710712 0)
(-0.296236 0.500881 0)
(-0.297519 0.26326 0)
(-0.324056 -0.0077729 0)
(-0.379187 -0.318143 0)
(-0.461137 -0.671758 0)
(-0.559026 -1.06507 0)
(-0.647086 -1.47491 0)
(-0.679141 -1.83576 0)
(-0.595097 -2.0084 0)
(-0.370568 -1.76273 0)
(-0.108926 -0.838554 0)
(-0.0657169 0.549504 0)
(-0.204755 1.1302 0)
(-0.318367 1.3491 0)
(-0.351067 1.36669 0)
(-0.313289 1.28378 0)
(-0.232444 1.15333 0)
(-0.131006 1.00066 0)
(-0.0262672 0.835692 0)
(0.0680929 0.660007 0)
(0.140876 0.470673 0)
(0.182394 0.262168 0)
(0.183951 0.0270833 0)
(0.138151 -0.243748 0)
(0.0405051 -0.560816 0)
(-0.106545 -0.933164 0)
(-0.28526 -1.35817 0)
(-0.44946 -1.79489 0)
(-0.517799 -2.1129 0)
(-0.407807 -2.02701 0)
(-0.144233 -1.08086 0)
(-0.108547 0.712159 0)
(-0.286078 1.2808 0)
(-0.348969 1.39363 0)
(-0.276117 1.31809 0)
(-0.119756 1.17517 0)
(0.0729633 1.01434 0)
(0.272907 0.853996 0)
(0.461279 0.698202 0)
(0.624965 0.544607 0)
(0.753874 0.388149 0)
(0.839051 0.222387 0)
(0.87147 0.0395261 0)
(0.841541 -0.170444 0)
(0.739431 -0.421215 0)
(0.557429 -0.731299 0)
(0.297871 -1.12003 0)
(-0.00897487 -1.58566 0)
(-0.281518 -2.04325 0)
(-0.376064 -2.20065 0)
(-0.167792 -1.37382 0)
(-0.15543 0.978472 0)
(-0.340098 1.40048 0)
(-0.237115 1.30647 0)
(0.0334696 1.11479 0)
(0.355064 0.923796 0)
(0.674856 0.754348 0)
(0.969865 0.608693 0)
(1.2282 0.481931 0)
(1.44303 0.367132 0)
(1.60944 0.257525 0)
(1.72229 0.146753 0)
(1.77494 0.0282547 0)
(1.75846 -0.106052 0)
(1.66062 -0.26817 0)
(1.46556 -0.478197 0)
(1.15701 -0.768888 0)
(0.731319 -1.18069 0)
(0.228239 -1.71342 0)
(-0.173245 -2.15957 0)
(-0.118906 -1.67508 0)
(-0.0475456 1.26953 0)
(-0.0720309 1.31691 0)
(0.411497 0.969002 0)
(0.958299 0.709587 0)
(1.42965 0.529379 0)
(1.82331 0.398453 0)
(2.14944 0.301168 0)
(2.41438 0.226158 0)
(2.62291 0.164604 0)
(2.77805 0.110127 0)
(2.88029 0.058015 0)
(2.92716 0.00428861 0)
(2.91296 -0.0552921 0)
(2.8272 -0.127357 0)
(2.65204 -0.224391 0)
(2.35859 -0.373296 0)
(1.90197 -0.630404 0)
(1.22466 -1.07925 0)
(0.45289 -1.68862 0)
(0.217528 -1.70189 0)
(1.43836 0.707247 0)
(1.83582 0.62662 0)
(2.56351 0.398307 0)
(3.13764 0.251686 0)
(3.51207 0.16427 0)
(3.76929 0.10944 0)
(3.95687 0.07401 0)
(4.09526 0.0502437 0)
(4.19541 0.0331259 0)
(4.26379 0.019526 0)
(4.30346 0.00749465 0)
(4.31494 -0.00430625 0)
(4.29638 -0.0169551 0)
(4.24301 -0.032175 0)
(4.14503 -0.0531823 0)
(3.98127 -0.0879866 0)
(3.70253 -0.158363 0)
(3.17444 -0.31617 0)
(2.2996 -0.622777 0)
(1.66832 -0.779896 0)
)
;

boundaryField
{
    movingWall
    {
        type            fixedValue;
        value           uniform (5.07426 0 0);
    }
    fixedWalls
    {
        type            noSlip;
    }
    frontAndBack
    {
        type            empty;
    }
}


// ************************************************************************* //
