/*--------------------------------*- C++ -*----------------------------------*\
  =========                 |
  \\      /  F ield         | OpenFOAM: The Open Source CFD Toolbox
   \\    /   O peration     | Website:  https://openfoam.org
    \\  /    A nd           | Version:  9
     \\/     M anipulation  |
\*---------------------------------------------------------------------------*/
FoamFile
{
    format      ascii;
    class       volVectorField;
    location    "0.065";
    object      U;
}
// * * * * * * * * * * * * * * * * * * * * * * * * * * * * * * * * * * * * * //

dimensions      [0 1 -1 0 0 0 0];

internalField   nonuniform List<vector> 
40
(
(-0.015173 0.149804 0)
(-0.0670858 0.341756 0)
(-0.154372 0.449089 0)
(-0.255577 0.50486 0)
(-0.359953 0.519871 0)
(-0.0172217 0.188004 0)
(-0.0751694 0.421264 0)
(-0.171521 0.547978 0)
(-0.281183 0.611688 0)
(-0.392872 0.626795 0)
(-0.0198241 0.230978 0)
(-0.085269 0.509557 0)
(-0.190802 0.655218 0)
(-0.0233825 0.280193 0)
(-0.0976972 0.607481 0)
(-0.21217 0.770462 0)
(-0.0283759 0.337718 0)
(-0.113848 0.71633 0)
(-0.236483 0.891744 0)
(-0.0359451 0.406792 0)
(-0.135751 0.836884 0)
(-0.26418 1.01408 0)
(-0.0480347 0.493301 0)
(-0.167608 0.969787 0)
(-0.295308 1.13079 0)
(-0.0678005 0.607981 0)
(-0.211662 1.11389 0)
(-0.322391 1.22705 0)
(-0.0958284 0.767299 0)
(-0.261621 1.25605 0)
(-0.312168 1.26809 0)
(-0.113672 1.00286 0)
(-0.267485 1.34666 0)
(-0.154559 1.18206 0)
(0.00616852 1.22253 0)
(-0.00132496 1.2317 0)
(0.456466 0.865479 0)
(1.36347 0.664309 0)
(1.74759 0.547799 0)
(2.39326 0.324431 0)
)
;

boundaryField
{
    movingWall
    {
        type            fixedValue;
        value           uniform (4.71714 0 0);
    }
    fixedWalls
    {
        type            noSlip;
    }
    frontAndBack
    {
        type            empty;
    }
    procBoundary1to0
    {
        type            processor;
        value           nonuniform List<vector> 5((-0.0134486 0.11594 0) (-0.0598548 0.270611 0) (-0.138891 0.359431 0) (-0.23108 0.40671 0) (-0.327017 0.420221 0));
    }
    procBoundary1to3
    {
        type            processor;
        value           nonuniform List<vector> 8((-0.461996 0.500275 0) (-0.307728 0.72548 0) (-0.500658 0.601735 0) (-0.423779 0.738875 0) (-0.307728 0.72548 0) (-0.333653 0.84386 0) (-0.357222 0.960859 0) (-0.375948 1.06829 0));
    }
    procBoundary1to4
    {
        type            processor;
        value           nonuniform List<vector> 6((-0.3829 1.15322 0) (-0.358049 1.19519 0) (-0.245803 1.15707 0) (0.0915531 0.979454 0) (0.941794 0.62529 0) (2.90706 0.207866 0));
    }
}


// ************************************************************************* //
