/*--------------------------------*- C++ -*----------------------------------*\
| =========                 |                                                 |
| \\      /  F ield         | OpenFOAM: The Open Source CFD Toolbox           |
|  \\    /   O peration     | Version:  2212                                  |
|   \\  /    A nd           | Website:  www.openfoam.com                      |
|    \\/     M anipulation  |                                                 |
\*---------------------------------------------------------------------------*/
FoamFile
{
    version     2.0;
    format      ascii;
    arch        "LSB;label=32;scalar=64";
    class       volVectorField;
    location    "0.3";
    object      U;
}
// * * * * * * * * * * * * * * * * * * * * * * * * * * * * * * * * * * * * * //

dimensions      [0 1 -1 0 0 0 0];

internalField   nonuniform List<vector> 
44
(
(0.112945 0 0)
(0.118617 0 0)
(0.121473 0 0)
(0.121469 0 0)
(0.137499 0 0)
(0.14431 0 0)
(0.147735 0 0)
(0.147733 0 0)
(0.144304 0 0)
(0.137491 0 0)
(0.165413 0 0)
(0.173454 0 0)
(0.177491 0 0)
(0.17749 0 0)
(0.173451 0 0)
(0.165408 0 0)
(0.19732 0 0)
(0.206671 0 0)
(0.211354 0 0)
(0.211354 0 0)
(0.206669 0 0)
(0.197317 0 0)
(0.233915 0 0)
(0.244625 0 0)
(0.249972 0 0)
(0.249972 0 0)
(0.244625 0 0)
(0.233914 0 0)
(0.275954 0 0)
(0.288013 0 0)
(0.294008 0 0)
(0.294009 0 0)
(0.288014 0 0)
(0.275955 0 0)
(0.324235 0 0)
(0.337531 0 0)
(0.34411 0 0)
(0.34411 0 0)
(0.337534 0 0)
(0.324238 0 0)
(0.400853 0 0)
(0.400855 0 0)
(0.393841 0 0)
(0.379568 0 0)
)
;

boundaryField
{
    movingWall
    {
        type            fixedValue;
        value           nonuniform List<vector> 0();
    }
    fixedWalls
    {
        type            noSlip;
    }
    frontAndBack
    {
        type            empty;
    }
    procBoundary4to0
    {
        type            processor;
        value           uniform (0.104551 0 0);
    }
    procBoundary4to1
    {
        type            processor;
        value           nonuniform List<vector> 7((0.0911784 0 0) (0.0958031 0 0) (0.0981348 0 0) (0.0981338 0 0) (0.11861 0 0) (0.11861 0 0) (0.112937 0 0));
    }
    procBoundary4to3
    {
        type            processor;
        value           nonuniform List<vector> 6((0.127396 0 0) (0.153449 0 0) (0.18335 0 0) (0.21783 0 0) (0.257723 0 0) (0.30396 0 0));
    }
    procBoundary4to5
    {
        type            processor;
        value           nonuniform List<vector> 6((0.127391 0 0) (0.153446 0 0) (0.183348 0 0) (0.217831 0 0) (0.257725 0 0) (0.303963 0 0));
    }
    procBoundary4to7
    {
        type            processor;
        value           nonuniform List<vector> 7((0.379569 0 0) (0.393839 0 0) (0.393839 0 0) (0.464682 0 0) (0.464682 0 0) (0.457473 0 0) (0.442691 0 0));
    }
    procBoundary4to8
    {
        type            processor;
        value           uniform (0.357571 0 0);
    }
}


// ************************************************************************* //
