/*--------------------------------*- C++ -*----------------------------------*\
| =========                 |                                                 |
| \\      /  F ield         | OpenFOAM: The Open Source CFD Toolbox           |
|  \\    /   O peration     | Version:  2212                                  |
|   \\  /    A nd           | Website:  www.openfoam.com                      |
|    \\/     M anipulation  |                                                 |
\*---------------------------------------------------------------------------*/
FoamFile
{
    version     2.0;
    format      ascii;
    arch        "LSB;label=32;scalar=64";
    class       volVectorField;
    location    "0.3";
    object      U;
}
// * * * * * * * * * * * * * * * * * * * * * * * * * * * * * * * * * * * * * //

dimensions      [0 1 -1 0 0 0 0];

internalField   nonuniform List<vector> 
400
(
(0.000657096 0 0)
(0.00195426 0 0)
(0.00320096 0 0)
(0.00436555 0 0)
(0.00541914 0 0)
(0.00633631 0 0)
(0.00709565 0 0)
(0.00768002 0 0)
(0.00807664 0 0)
(0.00827703 0 0)
(0.00827698 0 0)
(0.00807651 0 0)
(0.00767981 0 0)
(0.00709537 0 0)
(0.00633598 0 0)
(0.00541878 0 0)
(0.00436519 0 0)
(0.00320062 0 0)
(0.001954 0 0)
(0.000656988 0 0)
(0.00198875 0 0)
(0.00591455 0 0)
(0.0096872 0 0)
(0.0132107 0 0)
(0.0163977 0 0)
(0.0191713 0 0)
(0.021467 0 0)
(0.0232333 0 0)
(0.024432 0 0)
(0.0250375 0 0)
(0.0250374 0 0)
(0.0244316 0 0)
(0.0232328 0 0)
(0.0214662 0 0)
(0.0191704 0 0)
(0.0163967 0 0)
(0.0132097 0 0)
(0.0096863 0 0)
(0.00591387 0 0)
(0.00198847 0 0)
(0.00337345 0 0)
(0.0100321 0 0)
(0.0164293 0 0)
(0.0224018 0 0)
(0.0278012 0 0)
(0.0324977 0 0)
(0.0363831 0 0)
(0.0393711 0 0)
(0.0413979 0 0)
(0.0424217 0 0)
(0.0424215 0 0)
(0.0413974 0 0)
(0.0393702 0 0)
(0.036382 0 0)
(0.0324964 0 0)
(0.0277998 0 0)
(0.0224004 0 0)
(0.016428 0 0)
(0.0100311 0 0)
(0.00337305 0 0)
(0.00484865 0 0)
(0.0144177 0 0)
(0.0236074 0 0)
(0.0321816 0 0)
(0.0399268 0 0)
(0.046658 0 0)
(0.0522219 0 0)
(0.0564975 0 0)
(0.0593961 0 0)
(0.0608596 0 0)
(0.0608594 0 0)
(0.0593955 0 0)
(0.0564965 0 0)
(0.0522206 0 0)
(0.0466565 0 0)
(0.0399251 0 0)
(0.0321799 0 0)
(0.0236059 0 0)
(0.0144166 0 0)
(0.00484818 0 0)
(0.00645514 0 0)
(0.019192 0 0)
(0.0314165 0 0)
(0.0428115 0 0)
(0.0530928 0 0)
(0.0620167 0 0)
(0.0693837 0 0)
(0.0750387 0 0)
(0.0788691 0 0)
(0.080802 0 0)
(0.0808018 0 0)
(0.0788684 0 0)
(0.0750377 0 0)
(0.0693823 0 0)
(0.0620151 0 0)
(0.053091 0 0)
(0.0428098 0 0)
(0.031415 0 0)
(0.0191909 0 0)
(0.00645465 0 0)
(0.00823886 0 0)
(0.0244904 0 0)
(0.0400745 0 0)
(0.0545816 0 0)
(0.067649 0 0)
(0.0789708 0 0)
(0.0883008 0 0)
(0.0954514 0 0)
(0.100289 0 0)
(0.102728 0 0)
(0.102728 0 0)
(0.100288 0 0)
(0.0954504 0 0)
(0.0882995 0 0)
(0.0789692 0 0)
(0.0676474 0 0)
(0.0545799 0 0)
(0.040073 0 0)
(0.0244892 0 0)
(0.00823838 0 0)
(0.0102533 0 0)
(0.0304698 0 0)
(0.0498321 0 0)
(0.0678223 0 0)
(0.0839895 0 0)
(0.0979618 0 0)
(0.109448 0 0)
(0.118232 0 0)
(0.124165 0 0)
(0.127153 0 0)
(0.127153 0 0)
(0.124164 0 0)
(0.118231 0 0)
(0.109447 0 0)
(0.0979605 0 0)
(0.083988 0 0)
(0.0678208 0 0)
(0.0498307 0 0)
(0.0304687 0 0)
(0.0102529 0 0)
(0.0125631 0 0)
(0.0373186 0 0)
(0.0609873 0 0)
(0.0829207 0 0)
(0.102568 0 0)
(0.11949 0 0)
(0.133354 0 0)
(0.143926 0 0)
(0.15105 0 0)
(0.154634 0 0)
(0.154633 0 0)
(0.15105 0 0)
(0.143925 0 0)
(0.133353 0 0)
(0.119489 0 0)
(0.102567 0 0)
(0.0829195 0 0)
(0.0609862 0 0)
(0.0373177 0 0)
(0.0125627 0 0)
(0.0152488 0 0)
(0.0452711 0 0)
(0.0739054 0 0)
(0.100343 0 0)
(0.12392 0 0)
(0.14413 0 0)
(0.160614 0 0)
(0.173135 0 0)
(0.181547 0 0)
(0.18577 0 0)
(0.18577 0 0)
(0.181546 0 0)
(0.173134 0 0)
(0.160614 0 0)
(0.144129 0 0)
(0.123919 0 0)
(0.100342 0 0)
(0.0739045 0 0)
(0.0452704 0 0)
(0.0152485 0 0)
(0.0184159 0 0)
(0.0546293 0 0)
(0.0890493 0 0)
(0.120665 0 0)
(0.148688 0 0)
(0.172554 0 0)
(0.191903 0 0)
(0.206523 0 0)
(0.216306 0 0)
(0.221205 0 0)
(0.221205 0 0)
(0.216305 0 0)
(0.206522 0 0)
(0.191902 0 0)
(0.172554 0 0)
(0.148687 0 0)
(0.120665 0 0)
(0.0890487 0 0)
(0.0546288 0 0)
(0.0184156 0 0)
(0.0222072 0 0)
(0.0657989 0 0)
(0.107027 0 0)
(0.144622 0 0)
(0.177662 0 0)
(0.205556 0 0)
(0.227987 0 0)
(0.244819 0 0)
(0.256024 0 0)
(0.261618 0 0)
(0.261618 0 0)
(0.256024 0 0)
(0.244819 0 0)
(0.227987 0 0)
(0.205556 0 0)
(0.177662 0 0)
(0.144622 0 0)
(0.107027 0 0)
(0.0657986 0 0)
(0.022207 0 0)
(0.0268273 0 0)
(0.0793501 0 0)
(0.128668 0 0)
(0.173176 0 0)
(0.211831 0 0)
(0.244082 0 0)
(0.269736 0 0)
(0.288815 0 0)
(0.301431 0 0)
(0.307703 0 0)
(0.307703 0 0)
(0.301431 0 0)
(0.288815 0 0)
(0.269737 0 0)
(0.244082 0 0)
(0.211831 0 0)
(0.173177 0 0)
(0.128668 0 0)
(0.0793501 0 0)
(0.0268272 0 0)
(0.0325852 0 0)
(0.0961243 0 0)
(0.155146 0 0)
(0.207624 0 0)
(0.252455 0 0)
(0.289262 0 0)
(0.318127 0 0)
(0.339344 0 0)
(0.353255 0 0)
(0.360135 0 0)
(0.360135 0 0)
(0.353256 0 0)
(0.339345 0 0)
(0.318127 0 0)
(0.289263 0 0)
(0.252455 0 0)
(0.207624 0 0)
(0.155147 0 0)
(0.0961245 0 0)
(0.0325852 0 0)
(0.0399801 0 0)
(0.117433 0 0)
(0.188197 0 0)
(0.249757 0 0)
(0.301148 0 0)
(0.342441 0 0)
(0.374226 0 0)
(0.397248 0 0)
(0.412181 0 0)
(0.41952 0 0)
(0.41952 0 0)
(0.412182 0 0)
(0.397248 0 0)
(0.374227 0 0)
(0.342441 0 0)
(0.301149 0 0)
(0.249758 0 0)
(0.188197 0 0)
(0.117433 0 0)
(0.0399802 0 0)
(0.0498879 0 0)
(0.145445 0 0)
(0.230477 0 0)
(0.302094 0 0)
(0.359983 0 0)
(0.405177 0 0)
(0.439146 0 0)
(0.4633 0 0)
(0.478768 0 0)
(0.486311 0 0)
(0.486311 0 0)
(0.478768 0 0)
(0.463301 0 0)
(0.439147 0 0)
(0.405178 0 0)
(0.359985 0 0)
(0.302095 0 0)
(0.230478 0 0)
(0.145445 0 0)
(0.049888 0 0)
(0.0640191 0 0)
(0.183996 0 0)
(0.286195 0 0)
(0.368189 0 0)
(0.431554 0 0)
(0.479185 0 0)
(0.513931 0 0)
(0.538096 0 0)
(0.553336 0 0)
(0.560704 0 0)
(0.560704 0 0)
(0.553337 0 0)
(0.538097 0 0)
(0.513932 0 0)
(0.479186 0 0)
(0.431555 0 0)
(0.36819 0 0)
(0.286196 0 0)
(0.183997 0 0)
(0.0640193 0 0)
(0.0862153 0 0)
(0.240338 0 0)
(0.362138 0 0)
(0.452939 0 0)
(0.518892 0 0)
(0.566116 0 0)
(0.599341 0 0)
(0.621863 0 0)
(0.635828 0 0)
(0.642514 0 0)
(0.642514 0 0)
(0.635829 0 0)
(0.621864 0 0)
(0.599342 0 0)
(0.566117 0 0)
(0.518893 0 0)
(0.45294 0 0)
(0.362139 0 0)
(0.240339 0 0)
(0.0862156 0 0)
(0.126723 0 0)
(0.329013 0 0)
(0.469095 0 0)
(0.56256 0 0)
(0.624985 0 0)
(0.667078 0 0)
(0.69549 0 0)
(0.714224 0 0)
(0.725639 0 0)
(0.731052 0 0)
(0.731052 0 0)
(0.72564 0 0)
(0.714224 0 0)
(0.695491 0 0)
(0.667079 0 0)
(0.624986 0 0)
(0.562561 0 0)
(0.469096 0 0)
(0.329013 0 0)
(0.126723 0 0)
(0.218387 0 0)
(0.479902 0 0)
(0.62268 0 0)
(0.703238 0 0)
(0.751429 0 0)
(0.781744 0 0)
(0.801344 0 0)
(0.813931 0 0)
(0.821482 0 0)
(0.825033 0 0)
(0.825033 0 0)
(0.821482 0 0)
(0.813931 0 0)
(0.801344 0 0)
(0.781744 0 0)
(0.75143 0 0)
(0.703238 0 0)
(0.622681 0 0)
(0.479903 0 0)
(0.218388 0 0)
(0.485314 0 0)
(0.749534 0 0)
(0.838493 0 0)
(0.87629 0 0)
(0.895763 0 0)
(0.907138 0 0)
(0.914226 0 0)
(0.918691 0 0)
(0.921342 0 0)
(0.922583 0 0)
(0.922583 0 0)
(0.921342 0 0)
(0.918691 0 0)
(0.914226 0 0)
(0.907138 0 0)
(0.895763 0 0)
(0.876291 0 0)
(0.838493 0 0)
(0.749534 0 0)
(0.485314 0 0)
)
;

boundaryField
{
    movingWall
    {
        type            fixedValue;
        value           uniform (0.971981 0 0);
    }
    fixedWalls
    {
        type            noSlip;
    }
    frontAndBack
    {
        type            empty;
    }
}


// ************************************************************************* //
