/*--------------------------------*- C++ -*----------------------------------*\
| =========                 |                                                 |
| \\      /  F ield         | OpenFOAM: The Open Source CFD Toolbox           |
|  \\    /   O peration     | Version:  2212                                  |
|   \\  /    A nd           | Website:  www.openfoam.com                      |
|    \\/     M anipulation  |                                                 |
\*---------------------------------------------------------------------------*/
FoamFile
{
    version     2.0;
    format      ascii;
    arch        "LSB;label=32;scalar=64";
    class       volVectorField;
    location    "0.4";
    object      U;
}
// * * * * * * * * * * * * * * * * * * * * * * * * * * * * * * * * * * * * * //

dimensions      [0 1 -1 0 0 0 0];

internalField   nonuniform List<vector> 
46
(
(0.358401 0 0)
(0.327944 0 0)
(0.288383 0 0)
(0.239155 0 0)
(0.420352 0 0)
(0.387818 0 0)
(0.34454 0 0)
(0.289116 0 0)
(0.220562 0 0)
(0.139181 0 0)
(0.047738 0 0)
(0.491713 0 0)
(0.458447 0 0)
(0.412853 0 0)
(0.352212 0 0)
(0.273759 0 0)
(0.175992 0 0)
(0.0612322 0 0)
(0.573211 0 0)
(0.54141 0 0)
(0.496221 0 0)
(0.433124 0 0)
(0.346275 0 0)
(0.229799 0 0)
(0.0824314 0 0)
(0.664957 0 0)
(0.637769 0 0)
(0.5975 0 0)
(0.537794 0 0)
(0.448421 0 0)
(0.314498 0 0)
(0.121127 0 0)
(0.765967 0 0)
(0.747215 0 0)
(0.718219 0 0)
(0.672135 0 0)
(0.59512 0 0)
(0.458645 0 0)
(0.208707 0 0)
(0.873688 0 0)
(0.866907 0 0)
(0.856028 0 0)
(0.837409 0 0)
(0.801279 0 0)
(0.716258 0 0)
(0.463762 0 0)
)
;

boundaryField
{
    movingWall
    {
        type            fixedValue;
        value           uniform (0.928803 0 0);
    }
    fixedWalls
    {
        type            noSlip;
    }
    frontAndBack
    {
        type            empty;
    }
    procBoundary8to4
    {
        type            processor;
        value           uniform (0.380467 0 0);
    }
    procBoundary8to5
    {
        type            processor;
        value           nonuniform List<vector> 8((0.304861 0 0) (0.277188 0 0) (0.241904 0 0) (0.198936 0 0) (0.180198 0 0) (0.180198 0 0) (0.112437 0 0) (0.0382784 0 0));
    }
    procBoundary8to7
    {
        type            processor;
        value           nonuniform List<vector> 6((0.443492 0 0) (0.514855 0 0) (0.594773 0 0) (0.682889 0 0) (0.778014 0 0) (0.877961 0 0));
    }
}


// ************************************************************************* //
