/*--------------------------------*- C++ -*----------------------------------*\
  =========                 |
  \\      /  F ield         | OpenFOAM: The Open Source CFD Toolbox
   \\    /   O peration     | Website:  https://openfoam.org
    \\  /    A nd           | Version:  9
     \\/     M anipulation  |
\*---------------------------------------------------------------------------*/
FoamFile
{
    format      ascii;
    class       volVectorField;
    location    "0.05";
    object      U;
}
// * * * * * * * * * * * * * * * * * * * * * * * * * * * * * * * * * * * * * //

dimensions      [0 1 -1 0 0 0 0];

internalField   nonuniform List<vector> 
40
(
(-0.0307953 0.003655 0)
(-0.04154 0.00350796 0)
(-0.0510137 0.00299182 0)
(-0.0583798 0.00218661 0)
(-0.0629753 0.00116725 0)
(-0.0981167 0.0203935 0)
(-0.123017 0.0189312 0)
(-0.144821 0.0157937 0)
(-0.161626 0.0112472 0)
(-0.171881 0.00563412 0)
(-0.158475 0.0520472 0)
(-0.194742 0.0477471 0)
(-0.226099 0.0394883 0)
(-0.250052 0.0278088 0)
(-0.264507 0.013507 0)
(-0.210314 0.0952945 0)
(-0.256478 0.0865368 0)
(-0.296024 0.0710559 0)
(-0.326089 0.0497209 0)
(-0.34424 0.0238611 0)
(-0.256546 0.148356 0)
(-0.311819 0.13372 0)
(-0.359009 0.109284 0)
(-0.394984 0.0763 0)
(-0.417076 0.0366713 0)
(-0.299686 0.210729 0)
(-0.363693 0.189044 0)
(-0.418427 0.15425 0)
(-0.460569 0.107999 0)
(-0.487284 0.052778 0)
(-0.341724 0.282142 0)
(-0.41422 0.252442 0)
(-0.476472 0.206163 0)
(-0.525097 0.14542 0)
(-0.557162 0.073181 0)
(-0.384252 0.362141 0)
(-0.464968 0.323708 0)
(-0.534397 0.265035 0)
(-0.589414 0.188927 0)
(-0.627093 0.0987073 0)
)
;

boundaryField
{
    movingWall
    {
        type            fixedValue;
        value           nonuniform List<vector> 0();
    }
    fixedWalls
    {
        type            noSlip;
    }
    frontAndBack
    {
        type            empty;
    }
    procBoundary2to0
    {
        type            processor;
        value           nonuniform List<vector> 8((-0.0205169 0.00306977 0) (-0.0694113 0.0187065 0) (-0.116166 0.0495213 0) (-0.155223 0.0922115 0) (-0.188912 0.145137 0) (-0.219665 0.207527 0) (-0.249518 0.278828 0) (-0.280742 0.358744 0));
    }
    procBoundary2to3
    {
        type            processor;
        value           nonuniform List<vector> 5((-0.407199 0.427539 0) (-0.490715 0.381996 0) (-0.562254 0.313785 0) (-0.618895 0.225841 0) (-0.658401 0.122087 0));
    }
    procBoundary2to5
    {
        type            processor;
        value           nonuniform List<vector> 8((-0.0624917 6.57044e-05 0) (-0.168115 -0.000436107 0) (-0.257811 -0.00202026 0) (-0.334352 -0.00435455 0) (-0.404208 -0.00674065 0) (-0.472153 -0.00800062 0) (-0.540727 -0.00674545 0) (-0.610519 -0.00186385 0));
    }
}


// ************************************************************************* //
