/*--------------------------------*- C++ -*----------------------------------*\
| =========                 |                                                 |
| \\      /  F ield         | OpenFOAM: The Open Source CFD Toolbox           |
|  \\    /   O peration     | Version:  2212                                  |
|   \\  /    A nd           | Website:  www.openfoam.com                      |
|    \\/     M anipulation  |                                                 |
\*---------------------------------------------------------------------------*/
FoamFile
{
    version     2.0;
    format      ascii;
    arch        "LSB;label=32;scalar=64";
    class       volVectorField;
    location    "0.3";
    object      U;
}
// * * * * * * * * * * * * * * * * * * * * * * * * * * * * * * * * * * * * * //

dimensions      [0 1 -1 0 0 0 0];

internalField   nonuniform List<vector> 
44
(
(0.000627784 0 0)
(0.00186707 0 0)
(0.00305813 0 0)
(0.00417068 0 0)
(0.00517711 0 0)
(0.00605311 0 0)
(0.00677825 0 0)
(0.00190004 0 0)
(0.00565069 0 0)
(0.00925492 0 0)
(0.012621 0 0)
(0.0156653 0 0)
(0.0183143 0 0)
(0.0205067 0 0)
(0.00322294 0 0)
(0.00958443 0 0)
(0.015696 0 0)
(0.0214016 0 0)
(0.0265592 0 0)
(0.0310449 0 0)
(0.0347552 0 0)
(0.00463227 0 0)
(0.0137742 0 0)
(0.0225535 0 0)
(0.0307443 0 0)
(0.0381425 0 0)
(0.0445716 0 0)
(0.0498848 0 0)
(0.006167 0 0)
(0.0183352 0 0)
(0.0300135 0 0)
(0.0408987 0 0)
(0.0507193 0 0)
(0.0592428 0 0)
(0.0662778 0 0)
(0.00787103 0 0)
(0.0233968 0 0)
(0.0382844 0 0)
(0.0521422 0 0)
(0.0646236 0 0)
(0.0754383 0 0)
(0.0843478 0 0)
(0.0935803 0 0)
(0.104551 0 0)
)
;

boundaryField
{
    movingWall
    {
        type            fixedValue;
        value           nonuniform List<vector> 0();
    }
    fixedWalls
    {
        type            noSlip;
    }
    frontAndBack
    {
        type            empty;
    }
    procBoundary0to1
    {
        type            processor;
        value           nonuniform List<vector> 6((0.00733666 0 0) (0.0221945 0 0) (0.0376102 0 0) (0.0539699 0 0) (0.0716805 0 0) (0.0911784 0 0));
    }
    procBoundary0to3
    {
        type            processor;
        value           nonuniform List<vector> 8((0.00979599 0 0) (0.0291105 0 0) (0.0476082 0 0) (0.0647937 0 0) (0.0802351 0 0) (0.0802351 0 0) (0.114154 0 0) (0.127396 0 0));
    }
    procBoundary0to4
    {
        type            processor;
        value           uniform (0.112945 0 0);
    }
}


// ************************************************************************* //
