/*--------------------------------*- C++ -*----------------------------------*\
  =========                 |
  \\      /  F ield         | OpenFOAM: The Open Source CFD Toolbox
   \\    /   O peration     | Website:  https://openfoam.org
    \\  /    A nd           | Version:  9
     \\/     M anipulation  |
\*---------------------------------------------------------------------------*/
FoamFile
{
    format      ascii;
    class       volScalarField;
    location    "0.09";
    object      p;
}
// * * * * * * * * * * * * * * * * * * * * * * * * * * * * * * * * * * * * * //

dimensions      [0 2 -2 0 0 0 0];

internalField   nonuniform List<scalar> 
40
(
-0.190522
-0.383042
-0.49748
-0.573048
-0.626298
-0.379329
-0.456741
-0.530289
-0.588553
-0.63231
-0.486598
-0.522671
-0.565951
-0.605717
-0.639171
-0.551976
-0.570072
-0.594284
-0.619318
-0.642847
-0.592174
-0.600935
-0.613222
-0.627375
-0.642337
-0.616796
-0.620129
-0.624927
-0.631597
-0.640667
-0.63208
-0.632519
-0.633525
-0.636256
-0.644016
-0.642491
-0.642179
-0.642189
-0.645622
-0.659186
)
;

boundaryField
{
    movingWall
    {
        type            zeroGradient;
    }
    fixedWalls
    {
        type            zeroGradient;
    }
    frontAndBack
    {
        type            empty;
    }
    procBoundary0to1
    {
        type            processor;
        value           nonuniform List<scalar> 5(-0.646024 -0.6467 -0.644936 -0.644793 -0.648962);
    }
    procBoundary0to2
    {
        type            processor;
        value           nonuniform List<scalar> 8(-0.646855 -0.650663 -0.65321 -0.652501 -0.647929 -0.641939 -0.639245 -0.643594);
    }
}


// ************************************************************************* //
