/*--------------------------------*- C++ -*----------------------------------*\
| =========                 |                                                 |
| \\      /  F ield         | OpenFOAM: The Open Source CFD Toolbox           |
|  \\    /   O peration     | Version:  2212                                  |
|   \\  /    A nd           | Website:  www.openfoam.com                      |
|    \\/     M anipulation  |                                                 |
\*---------------------------------------------------------------------------*/
FoamFile
{
    version     2.0;
    format      ascii;
    arch        "LSB;label=32;scalar=64";
    class       volVectorField;
    location    "0.5";
    object      U;
}
// * * * * * * * * * * * * * * * * * * * * * * * * * * * * * * * * * * * * * //

dimensions      [0 1 -1 0 0 0 0];

internalField   nonuniform List<vector> 
44
(
(0.00988403 0 0)
(0.0293726 0 0)
(0.0480383 0 0)
(0.0653819 0 0)
(0.080968 0 0)
(0.0120986 0 0)
(0.0359394 0 0)
(0.0587344 0 0)
(0.0798595 0 0)
(0.0987841 0 0)
(0.115084 0 0)
(0.128439 0 0)
(0.0146702 0 0)
(0.0435537 0 0)
(0.0711034 0 0)
(0.0965417 0 0)
(0.11923 0 0)
(0.13868 0 0)
(0.154545 0 0)
(0.017699 0 0)
(0.0525037 0 0)
(0.0855871 0 0)
(0.115979 0 0)
(0.142919 0 0)
(0.165867 0 0)
(0.184472 0 0)
(0.0213219 0 0)
(0.0631768 0 0)
(0.102766 0 0)
(0.138871 0 0)
(0.170606 0 0)
(0.197403 0 0)
(0.218953 0 0)
(0.025734 0 0)
(0.0761179 0 0)
(0.123432 0 0)
(0.166139 0 0)
(0.203236 0 0)
(0.234192 0 0)
(0.25882 0 0)
(0.199022 0 0)
(0.242012 0 0)
(0.277315 0 0)
(0.305005 0 0)
)
;

boundaryField
{
    movingWall
    {
        type            fixedValue;
        value           nonuniform List<vector> 0();
    }
    fixedWalls
    {
        type            noSlip;
    }
    frontAndBack
    {
        type            empty;
    }
    procBoundary3to0
    {
        type            processor;
        value           nonuniform List<vector> 8((0.00794955 0 0) (0.0236306 0 0) (0.0386681 0 0) (0.0526668 0 0) (0.0652769 0 0) (0.0944397 0 0) (0.0944397 0 0) (0.105515 0 0));
    }
    procBoundary3to4
    {
        type            processor;
        value           nonuniform List<vector> 6((0.138629 0 0) (0.1666 0 0) (0.198535 0 0) (0.235131 0 0) (0.277142 0 0) (0.325366 0 0));
    }
    procBoundary3to6
    {
        type            processor;
        value           nonuniform List<vector> 7((0.0312312 0 0) (0.0921322 0 0) (0.148709 0 0) (0.148709 0 0) (0.239236 0 0) (0.288482 0 0) (0.32806 0 0));
    }
    procBoundary3to7
    {
        type            processor;
        value           uniform (0.358535 0 0);
    }
}


// ************************************************************************* //
