/*--------------------------------*- C++ -*----------------------------------*\
  =========                 |
  \\      /  F ield         | OpenFOAM: The Open Source CFD Toolbox
   \\    /   O peration     | Website:  https://openfoam.org
    \\  /    A nd           | Version:  9
     \\/     M anipulation  |
\*---------------------------------------------------------------------------*/
FoamFile
{
    format      ascii;
    class       surfaceScalarField;
    location    "0.09";
    object      phi;
}
// * * * * * * * * * * * * * * * * * * * * * * * * * * * * * * * * * * * * * //

dimensions      [0 3 -1 0 0 0 0];

internalField   nonuniform List<scalar> 
63
(
-1.65271e-06
8.28886e-06
-5.59314e-06
2.01276e-05
-1.08622e-05
2.7512e-05
-1.66898e-05
3.13461e-05
3.23809e-05
-1.8228e-06
1.01117e-05
-6.10445e-06
2.44092e-05
-1.1735e-05
3.31425e-05
-1.78728e-05
-2.01493e-06
1.21266e-05
-6.64108e-06
2.90354e-05
3.90708e-05
-2.26345e-06
1.439e-05
-7.25709e-06
3.4029e-05
4.52039e-05
-2.62855e-06
1.70186e-05
-8.0578e-06
3.94583e-05
5.14132e-05
-3.23391e-06
2.02525e-05
-9.21483e-06
4.54392e-05
5.74819e-05
-4.31238e-06
2.45649e-05
-1.09651e-05
5.2092e-05
6.29404e-05
-6.20701e-06
3.07719e-05
-1.34428e-05
5.93277e-05
6.66877e-05
-9.24105e-06
4.00129e-05
-1.59018e-05
6.59885e-05
6.62137e-05
-1.27593e-05
5.27722e-05
-1.39919e-05
6.72211e-05
5.64283e-05
-8.49238e-06
6.12646e-05
9.6405e-06
4.90882e-05
3.07401e-05
6.12646e-05
0.000110353
)
;

boundaryField
{
    movingWall
    {
        type            calculated;
        value           uniform 0;
    }
    fixedWalls
    {
        type            calculated;
        value           uniform 0;
    }
    frontAndBack
    {
        type            empty;
        value           nonuniform List<scalar> 0();
    }
    procBoundary1to0
    {
        type            processor;
        value           nonuniform List<scalar> 5(-6.63615e-06 -1.61871e-05 -2.22429e-05 -2.55185e-05 -2.6513e-05);
    }
    procBoundary1to3
    {
        type            processor;
        value           nonuniform List<scalar> 8(-2.25576e-05 3.74839e-05 -2.39722e-05 3.84802e-05 -1.25693e-05 -1.33902e-05 -1.42671e-05 -1.52835e-05);
    }
    procBoundary1to4
    {
        type            processor;
        value           nonuniform List<scalar> 6(-1.64237e-05 -1.71901e-05 -1.54277e-05 -4.2065e-06 3.53287e-05 0.000141093);
    }
}


// ************************************************************************* //
