/*--------------------------------*- C++ -*----------------------------------*\
  =========                 |
  \\      /  F ield         | OpenFOAM: The Open Source CFD Toolbox
   \\    /   O peration     | Website:  https://openfoam.org
    \\  /    A nd           | Version:  8
     \\/     M anipulation  |
\*---------------------------------------------------------------------------*/
FoamFile
{
    version     2.0;
    format      ascii;
    class       volScalarField;
    location    "0";
    object      nut;
}
// * * * * * * * * * * * * * * * * * * * * * * * * * * * * * * * * * * * * * //

dimensions      [0 2 -1 0 0 0 0];

internalField   nonuniform List<scalar> 
350000
(
0.000591271
0.000561199
0.000408693
0.0002802
0.000248524
0.000211242
0.000167261
0.000157592
0.00017565
0.000192104
0.000196339
0.00019904
0.000204265
0.00020625
0.000203205
0.000205833
0.000224595
0.000246979
0.000252725
0.000241537
0.000227795
0.000216402
0.000209509
0.000211262
0.000217281
0.000226733
0.000241842
0.000249864
0.000248574
0.000261239
0.00029768
0.000328123
0.000325503
0.000302822
0.000290938
0.000299878
0.000326641
0.000366394
0.000413588
0.000443823
0.000427903
0.000384869
0.000352225
0.000324243
0.000298884
0.000288971
0.000294149
0.000302223
0.000314945
0.000342135
0.000377316
0.000392137
0.000387014
0.000379193
0.000372161
0.000362776
0.000350519
0.000341196
0.00034234
0.000353694
0.000358859
0.000349494
0.000338049
0.000329669
0.0003334
0.000374113
0.000446794
0.000510829
0.000542493
0.000563693
0.000593524
0.000569772
0.000430192
0.000293705
0.000238986
0.000193227
0.000164741
0.000168202
0.000185142
0.000195751
0.000196943
0.000197444
0.000200003
0.000200619
0.000200021
0.000207752
0.000227976
0.000248097
0.000255283
0.000251554
0.00024301
0.000227937
0.00021429
0.00021146
0.000215487
0.000225857
0.000240453
0.000248342
0.000252126
0.000270238
0.000304599
0.000328782
0.000324572
0.000305699
0.000293909
0.000298978
0.000323527
0.000365824
0.000419006
0.000456264
0.000446035
0.000402415
0.000360949
0.000324211
0.000297432
0.00028997
0.000295197
0.000303977
0.000321947
0.000352497
0.000380471
0.000388252
0.000384576
0.000383336
0.000381414
0.000372234
0.000357286
0.000346789
0.000348473
0.000360286
0.000366717
0.000355255
0.000336498
0.000324421
0.000333132
0.000379858
0.00045502
0.000523005
0.0005573
0.00057211
0.000591522
0.000584732
0.000473604
0.000319017
0.000234749
0.000185911
0.000168252
0.000176008
0.000190498
0.000198141
0.000197909
0.000196429
0.000196553
0.000196591
0.000198081
0.000208183
0.000228318
0.000248199
0.000259334
0.000263219
0.000258416
0.000239602
0.000219003
0.000210963
0.000213019
0.000223518
0.000237683
0.00024626
0.00025377
0.000273616
0.000304952
0.000326049
0.000323557
0.000308078
0.000294631
0.000295197
0.000317498
0.000360997
0.00041833
0.000464349
0.000464283
0.000421186
0.000371304
0.000328057
0.000299457
0.000291683
0.000295759
0.00030431
0.000324851
0.000356225
0.000379312
0.000383509
0.00038209
0.000386849
0.000389886
0.000380716
0.000362448
0.000349701
0.000350812
0.000363116
0.000372337
0.000360699
0.000336137
0.000320528
0.000330459
0.000377809
0.000454106
0.000528331
0.000566957
0.000574759
0.000582657
0.000599643
0.000526589
0.000353832
0.000235061
0.000184375
0.000173842
0.000182647
0.000194651
0.000200492
0.000199537
0.00019628
0.000193888
0.000193105
0.000196063
0.000207429
0.000227251
0.000248054
0.000264215
0.000275662
0.000274649
0.00025313
0.000225195
0.000210479
0.000209818
0.000219934
0.000233779
0.000243316
0.000253664
0.000273262
0.000300502
0.000320016
0.000321443
0.000309614
0.000293865
0.000289848
0.000309889
0.00035326
0.000412819
0.000468047
0.000481106
0.000440793
0.000383603
0.000335005
0.000304169
0.000294439
0.000296275
0.000303263
0.000323871
0.000354585
0.000373962
0.000376346
0.000377766
0.000388649
0.000397208
0.000388569
0.000366874
0.000351055
0.000350873
0.000363513
0.000376387
0.000366156
0.000336576
0.000316908
0.000325658
0.000370152
0.000445729
0.000527508
0.000571859
0.000571412
0.00056408
0.000607878
0.000579693
0.000397882
0.000242648
0.000187789
0.000180327
0.000188356
0.000198068
0.000202933
0.000201989
0.000197638
0.000192758
0.000190139
0.000193393
0.000205046
0.000224722
0.000247298
0.000268849
0.000286996
0.000290361
0.000268615
0.000234071
0.000210802
0.000206053
0.000215218
0.000228873
0.000239338
0.000251241
0.000268886
0.000290943
0.00031014
0.000317289
0.000309541
0.000291727
0.000283604
0.00030123
0.000342535
0.000400957
0.000463827
0.000492358
0.000459062
0.000397535
0.000344997
0.000311592
0.000298593
0.000296942
0.000300394
0.000317921
0.000346451
0.000363603
0.000365792
0.000370069
0.000386665
0.000401401
0.000394735
0.000370308
0.000350639
0.000348335
0.000360844
0.000377586
0.000370799
0.000337974
0.000313708
0.000318651
0.000356444
0.000428166
0.000517613
0.000569137
0.000560313
0.000533399
0.000602874
0.000625036
0.000449886
0.000259085
0.00019463
0.000187047
0.0001935
0.000201143
0.000205516
0.000205281
0.000200918
0.000193881
0.000187711
0.000189529
0.000200773
0.000220677
0.000245576
0.00027211
0.000295789
0.000304412
0.000285808
0.000246827
0.000213014
0.000202033
0.000209609
0.000223218
0.000234332
0.000246494
0.000261011
0.0002766
0.000295889
0.000309978
0.000307147
0.000288304
0.000276786
0.000291708
0.000328814
0.000381638
0.000448345
0.000493845
0.000473521
0.00041227
0.000357313
0.000321381
0.00030444
0.000298127
0.000295932
0.000307146
0.000331676
0.00034764
0.000350569
0.000357139
0.000378684
0.000400442
0.000398173
0.000372697
0.000348612
0.00034324
0.000354848
0.000374901
0.000373599
0.000340046
0.000310813
0.000309658
0.000337037
0.000400504
0.000496299
0.000556632
0.000540346
0.000489382
0.000579148
0.000656116
0.000506384
0.000284841
0.000204109
0.000193824
0.000198419
0.000204186
0.000208231
0.000209182
0.000206083
0.000197957
0.000186346
0.000184125
0.00019434
0.000214778
0.000242454
0.000273066
0.000300912
0.000315473
0.000303621
0.000264111
0.000218584
0.000198289
0.000203335
0.000217094
0.000228578
0.000239855
0.000250306
0.000258259
0.000276891
0.000298416
0.000301654
0.000283445
0.000269381
0.000281331
0.000312243
0.000354113
0.000418263
0.000480865
0.000480682
0.00042609
0.000370787
0.000332944
0.000312168
0.000300411
0.00029078
0.000292699
0.000310857
0.000325571
0.000329287
0.000336937
0.000362229
0.000391842
0.000397178
0.000373594
0.000345147
0.000335688
0.000345471
0.00036742
0.000373171
0.000342077
0.000308031
0.00029905
0.000312757
0.000362437
0.000461461
0.00053222
0.000510265
0.000432794
0.000532913
0.000667371
0.00056212
0.000319353
0.000216112
0.000200746
0.000203467
0.000207515
0.000211062
0.000213238
0.000212497
0.000205384
0.000187377
0.000177363
0.000185507
0.000206754
0.000237388
0.000271156
0.000301641
0.000322159
0.000320201
0.000285538
0.000229323
0.000195699
0.000196566
0.000210722
0.000222613
0.000232187
0.000238017
0.000237462
0.00025334
0.000281729
0.000292193
0.000276725
0.000261132
0.000269989
0.000293347
0.000318213
0.000370391
0.00044828
0.000476084
0.000436347
0.000383832
0.000345326
0.000321675
0.000304563
0.000286463
0.000277047
0.000285719
0.000297426
0.000300704
0.000307257
0.000334448
0.000372543
0.000389208
0.000371826
0.000340314
0.00032586
0.000332967
0.000354667
0.000367946
0.000342826
0.000304983
0.000287289
0.000285269
0.000315037
0.00041226
0.000494502
0.000468581
0.000365937
0.000463287
0.000654291
0.00061097
0.000361042
0.000230984
0.000208134
0.000209053
0.00021151
0.000214067
0.000216941
0.000219001
0.000215755
0.000192973
0.000170472
0.000174178
0.000196376
0.000229942
0.000266196
0.000297716
0.000323204
0.000333181
0.000309371
0.000246955
0.000195711
0.000189439
0.000204121
0.000217084
0.000224715
0.000226276
0.000216525
0.000226456
0.000259568
0.000277858
0.000267437
0.000251668
0.000257548
0.000272715
0.000274495
0.000302032
0.000390606
0.000454497
0.000439521
0.000394417
0.000357148
0.000332363
0.000311099
0.000284744
0.000263846
0.000259618
0.000264678
0.000264189
0.000265687
0.000291705
0.000338649
0.000370862
0.00036503
0.000333725
0.000313915
0.000317832
0.000336905
0.000356464
0.000340545
0.000300971
0.000274759
0.000257431
0.000261753
0.000349852
0.000443783
0.000413738
0.00029027
0.000373443
0.000613871
0.000646769
0.000407168
0.000249173
0.000216534
0.000215712
0.000216699
0.000217496
0.000219969
0.000224241
0.000227429
0.000205329
0.000166381
0.000160848
0.000183337
0.000219773
0.000258287
0.000289412
0.000317716
0.000340094
0.000332611
0.000272196
0.000200522
0.00018221
0.000197
0.000212458
0.000218899
0.000217239
0.000198791
0.000198417
0.00023252
0.000257883
0.000254593
0.000240596
0.000243921
0.000250755
0.000224015
0.000207028
0.000303163
0.00041092
0.000431525
0.000400063
0.000366626
0.000343024
0.000319751
0.000286983
0.000256927
0.000237843
0.00023016
0.000220457
0.000210707
0.000229545
0.000284778
0.000337755
0.000349364
0.000323986
0.000299814
0.000300635
0.000315268
0.000337839
0.000333085
0.000294813
0.000261466
0.000233399
0.000209604
0.000278357
0.000383029
0.000346183
0.000206484
0.000271567
0.000545051
0.000663838
0.000453866
0.000270727
0.000226611
0.000224135
0.000223889
0.000221932
0.000222394
0.000227162
0.000237675
0.000224751
0.000170056
0.000147311
0.000167725
0.000206611
0.000247666
0.000277571
0.000305484
0.000338798
0.000351526
0.000303718
0.000213005
0.000175556
0.000188774
0.000208663
0.000216135
0.00021242
0.000188139
0.000172851
0.000202539
0.000232028
0.000237011
0.000227562
0.000229155
0.000227813
0.000164785
9.71632e-05
0.000195622
0.00034477
0.000408764
0.000397965
0.000371645
0.000351825
0.000329372
0.000293595
0.000258497
0.000226326
0.000198199
0.000172899
0.000137915
0.000137309
0.000204458
0.000284242
0.000320604
0.000308262
0.000283048
0.000281751
0.00029164
0.000312357
0.000318213
0.0002847
0.000246609
0.000217478
0.000168295
0.000205054
0.000317013
0.000274447
0.000144328
0.000177956
0.000448336
0.000657157
0.000496433
0.000294813
0.000238766
0.000235059
0.00023425
0.000228493
0.000224825
0.000227445
0.000243626
0.000247811
0.000187692
0.000137555
0.000150686
0.000190445
0.000234502
0.000263536
0.000287281
0.000327925
0.000362372
0.000337751
0.000235981
0.000170994
0.000178799
0.00020488
0.000217213
0.000212663
0.000186846
0.000154887
0.000173136
0.000201122
0.000213716
0.000212394
0.000214056
0.000198096
0.000113536
0.000113114
0.000165128
0.000274465
0.000371024
0.000385532
0.000369906
0.00035643
0.000337952
0.00030385
0.00026812
0.000228043
0.000174484
0.000127435
8.16493e-05
6.04582e-05
9.31729e-05
0.000207337
0.00027539
0.000282538
0.0002624
0.000261132
0.000268167
0.000282103
0.00029449
0.000268332
0.000228552
0.000210274
0.000146765
0.000141104
0.000248136
0.000224197
0.000152467
0.000194042
0.000326242
0.000622333
0.000529599
0.000319543
0.00025253
0.000248833
0.000249135
0.000239042
0.000228517
0.000225708
0.000243558
0.000267913
0.000222205
0.000138028
0.000135368
0.000172126
0.000218776
0.000248866
0.000265166
0.000307298
0.000362069
0.000368774
0.000270556
0.000171301
0.000166769
0.000199696
0.000221669
0.000218462
0.000193602
0.000149089
0.000149753
0.000167882
0.000184507
0.000195394
0.000197929
0.000155928
0.000102568
0.000113851
0.000169843
0.000236257
0.000325913
0.000361639
0.000359183
0.00035428
0.000342568
0.000315114
0.000283392
0.000240697
0.000162753
9.73423e-05
0.000101369
0.000132691
0.0001039
0.000120582
0.000214802
0.000243852
0.000235773
0.000238263
0.000246469
0.000251079
0.000262703
0.000243783
0.000205984
0.000205825
0.000155439
0.00010178
0.000172917
0.000218605
0.000136736
0.000310782
0.000201394
0.000556061
0.000547859
0.000342196
0.000266075
0.000264607
0.000269299
0.000256171
0.000235554
0.000223384
0.000237592
0.000278757
0.000266866
0.000158236
0.000125977
0.000154857
0.000200527
0.000234751
0.000242628
0.000278375
0.000348738
0.0003909
0.000314382
0.000180524
0.000153332
0.000191614
0.000227529
0.000230026
0.000205096
0.000155975
0.000137264
0.00013982
0.000152452
0.000177296
0.000175934
0.000116206
0.000119738
0.000103175
0.00010847
0.000209418
0.000286544
0.000328247
0.000337817
0.000342927
0.000339847
0.000322899
0.000300773
0.000258785
0.000164824
9.36809e-05
0.000121866
0.000154346
0.000161507
9.7034e-05
0.00015224
0.000195644
0.000201757
0.000212563
0.000227089
0.000224127
0.000227061
0.000210766
0.000179019
0.00019577
0.000187301
9.16352e-05
9.36307e-05
0.000225769
0.000140979
0.000354336
0.000187345
0.000457458
0.000545963
0.000359895
0.000276487
0.00027961
0.000293502
0.000282297
0.000249064
0.000222451
0.000227603
0.000277483
0.000307299
0.000206499
0.000124946
0.000144095
0.000180916
0.000221181
0.000224155
0.000244874
0.000322166
0.000399169
0.000361168
0.000203056
0.000140169
0.000179584
0.000231863
0.000246376
0.000219896
0.000169735
0.000134967
0.000129625
0.000126772
0.000159384
0.000145023
0.00010214
0.000137305
0.000163098
0.000160524
0.000165431
0.000253171
0.000290163
0.000305465
0.000320377
0.00032652
0.000322605
0.000315791
0.000277408
0.000179544
0.000105834
0.000136952
0.000165768
0.000163932
0.000122697
0.000112731
0.000151818
0.000163625
0.000185221
0.000209703
0.000204845
0.000194522
0.000173405
0.000149922
0.000176982
0.000210743
0.000104483
6.2737e-05
0.000201259
0.000232203
0.000291741
0.000310966
0.000333883
0.000519661
0.000370079
0.000281108
0.000289325
0.000317299
0.000317398
0.000272866
0.000225419
0.00021632
0.000265225
0.000331503
0.000274705
0.000138237
0.000142287
0.000163706
0.000206409
0.00021332
0.000213256
0.000284429
0.000390373
0.000402206
0.000240991
0.000130757
0.000163613
0.000231935
0.000264568
0.000238793
0.00018313
0.000138754
0.00013471
0.000115465
0.000139002
0.000107981
0.000104943
0.000147461
0.000210182
0.000247333
0.000169039
0.000211809
0.000250501
0.000263697
0.000285543
0.00029984
0.000309669
0.000322724
0.000293426
0.000201354
0.000121703
0.000145602
0.000174694
0.000161961
0.000126321
0.000102427
0.00012781
0.000133223
0.00015996
0.000193561
0.000193794
0.000171067
0.00013981
0.000123103
0.000153673
0.000208121
0.000143984
0.000104623
0.000132397
0.000288695
0.000165182
0.000395724
0.000220217
0.000468081
0.000371024
0.000279248
0.000289212
0.0003334
0.000356335
0.000309505
0.000235644
0.000205819
0.000245995
0.000335148
0.000339788
0.00018174
0.000144553
0.000154993
0.000187957
0.000209829
0.00019145
0.0002409
0.000363566
0.000429171
0.000291238
0.00013086
0.000145547
0.00022632
0.000280123
0.000261832
0.000193475
0.00014498
0.00013908
0.000115321
0.000114505
7.41493e-05
0.000105264
0.000151585
0.000229165
0.000274959
0.000224146
0.000164736
0.000207464
0.00021572
0.000238762
0.000258133
0.00027982
0.000314801
0.000303574
0.000224298
0.000139499
0.000145826
0.000178868
0.000169632
0.000125209
0.000103705
0.000119118
0.00011894
0.000140501
0.000175842
0.000187506
0.000159326
0.000117678
9.92032e-05
0.00013027
0.00018057
0.000185356
0.000112013
5.06624e-05
0.000247905
0.000142807
0.000390886
0.00020316
0.000396462
0.000362548
0.000273086
0.000277716
0.000334072
0.000388311
0.000356586
0.000256759
0.000197033
0.000224515
0.000319987
0.000382668
0.000255206
0.000147773
0.0001584
0.000165899
0.000208318
0.000184115
0.00020134
0.000320626
0.000436112
0.000345332
0.000146241
0.000128509
0.000215547
0.000288273
0.000285772
0.000203106
0.000149591
0.000143757
0.000121644
9.12732e-05
5.07166e-05
9.53732e-05
0.000153087
0.000223183
0.000258327
0.000257191
0.000135821
0.000159988
0.000165001
0.0001827
0.000201852
0.00022981
0.000287245
0.000303113
0.000244001
0.000160925
0.000141851
0.000177374
0.000182051
0.000133604
0.00010553
0.000112818
0.000110648
0.000127358
0.000151944
0.000177623
0.000160096
0.000110947
7.43251e-05
0.00010072
0.000138536
0.000201292
8.13741e-05
9.67111e-05
0.000139151
0.000210702
0.000317458
0.000275445
0.000319437
0.000346334
0.000266485
0.000258737
0.000314354
0.000399804
0.000403762
0.000289921
0.000191374
0.000203025
0.000290929
0.000395437
0.000332815
0.000163467
0.000168628
0.000146864
0.000200549
0.000189232
0.000178132
0.000267377
0.00042012
0.0003926
0.00017822
0.000115366
0.000202127
0.000285224
0.000303838
0.000216603
0.000149711
0.000157832
0.000146381
7.60521e-05
4.70614e-05
7.56528e-05
0.000154363
0.000195206
0.000209536
0.000247035
0.000135483
0.000117273
0.000115089
0.000121154
0.000132068
0.000157328
0.000236545
0.000288474
0.000257417
0.000184934
0.000147473
0.000176427
0.00019058
0.000148094
0.000102008
0.000101533
0.000101053
0.000117762
0.000128998
0.000156021
0.000167433
0.000118263
7.6176e-05
9.04338e-05
0.000101951
0.000189042
7.41509e-05
0.000152922
8.10198e-05
0.000181625
0.000220594
0.000329902
0.000261363
0.000324361
0.000262526
0.000237971
0.000274551
0.000378739
0.000433356
0.000330345
0.00019226
0.000179524
0.000253443
0.000377386
0.000389246
0.000206009
0.000176374
0.000141623
0.000182078
0.000199235
0.000177069
0.000214785
0.000381757
0.000423946
0.000222641
0.000108315
0.000189594
0.000269138
0.00030808
0.000234589
0.000148985
0.000167517
0.000184552
9.3406e-05
4.46803e-05
5.86521e-05
0.000156559
0.000175911
0.0001758
0.00020698
0.000141617
9.32962e-05
7.59173e-05
6.12152e-05
6.71055e-05
7.49863e-05
0.000159863
0.000257465
0.000263312
0.00020714
0.000170063
0.000187247
0.000194327
0.000158637
9.65461e-05
8.34686e-05
9.32052e-05
0.000101642
0.000130491
0.000127281
0.000164941
0.000131894
9.08775e-05
0.000116686
9.62259e-05
0.000156758
0.000115338
0.000158949
0.000174177
8.2566e-05
0.000147011
0.00033547
0.000236034
0.000300311
0.000261007
0.000217072
0.000224228
0.000317881
0.000425305
0.000365628
0.000203251
0.000148936
0.000210439
0.000331087
0.000411433
0.000266834
0.000180163
0.000152344
0.000157154
0.000205924
0.000190947
0.000178275
0.000325275
0.000433292
0.000271649
0.000112135
0.000179928
0.000241867
0.000292433
0.000251519
0.000154331
0.000164767
0.000202351
0.000153055
5.45326e-05
9.53721e-05
0.000181517
0.000213519
0.000190564
0.000165232
0.000138471
7.73707e-05
6.04031e-05
2.08892e-05
7.68989e-05
0.000104387
7.58998e-05
0.000209206
0.00026089
0.000223281
0.000198797
0.000208705
0.000194811
0.000156817
9.46556e-05
6.45191e-05
8.31695e-05
7.58673e-05
0.000133348
0.000111514
0.000142656
0.000139853
9.21286e-05
0.000117239
0.000113353
0.000121011
0.000142685
0.000135022
0.000226053
1.88941e-05
0.000118559
0.000298172
0.000226929
0.000279589
0.000259243
0.000210374
0.000218724
0.00022852
0.000365324
0.000376951
0.000223027
0.000114281
0.000158553
0.000260356
0.000395371
0.000325302
0.000185786
0.000168359
0.00013538
0.000206657
0.000209843
0.000169697
0.000258213
0.000417762
0.000315683
0.000130666
0.000175366
0.000211168
0.000255241
0.000259929
0.00016983
0.000156097
0.00019676
0.000209144
0.000161644
0.000180724
0.000247123
0.000270459
0.000201973
0.0001307
0.000129528
6.43589e-05
5.16649e-05
3.15178e-05
9.98999e-05
0.000161504
8.63771e-05
0.000149096
0.000248813
0.000231408
0.000221189
0.000227881
0.000190815
0.000139917
9.24742e-05
5.67656e-05
6.40533e-05
6.34198e-05
0.000108242
0.000111254
0.000106755
0.000133638
0.000119881
0.000131522
0.000142971
0.000106652
0.000138806
0.000122966
0.000219595
9.3546e-05
0.000115942
0.000239954
0.000212533
0.000264327
0.000258793
0.000226425
0.000271351
0.000206155
0.000260813
0.000348707
0.000239607
9.30185e-05
0.000115522
0.000170507
0.000343008
0.000365671
0.000203082
0.000177604
0.000123979
0.000203566
0.000229026
0.000185129
0.000190882
0.000376989
0.000346767
0.000159601
0.000176979
0.000191198
0.00020083
0.000253707
0.000193551
0.000152953
0.000182919
0.000235423
0.000261343
0.000285209
0.000327353
0.000313579
0.000200479
0.000100041
0.000121154
6.59237e-05
3.62298e-05
5.22343e-05
0.000114667
0.00017197
0.000145592
9.32655e-05
0.000226938
0.000232252
0.000233772
0.000233188
0.000182027
0.000120851
8.42179e-05
6.15471e-05
5.03357e-05
5.36239e-05
7.69652e-05
0.000101583
7.39234e-05
0.000115301
0.000154159
0.000178302
0.000168124
0.000112069
0.000117041
0.000139951
0.000182368
0.00014163
9.91788e-05
0.00019392
0.000195022
0.000248389
0.000263261
0.000231965
0.000247476
0.00023584
0.000162171
0.000284662
0.000240661
8.7307e-05
9.68792e-05
9.7643e-05
0.000262226
0.000378814
0.000240874
0.000177687
0.000123827
0.000200352
0.000247607
0.000211336
0.000139408
0.000311973
0.0003582
0.000191438
0.000183163
0.000188373
0.000140835
0.000229685
0.000216297
0.000166418
0.00017857
0.000237959
0.00031982
0.000376247
0.00038725
0.000326021
0.000184169
7.20676e-05
0.000112866
7.51307e-05
2.6089e-05
6.73735e-05
0.000121063
0.000134199
0.000161903
6.82964e-05
0.000200325
0.000227049
0.000234791
0.000218511
0.000178183
0.000128189
7.65494e-05
6.76547e-05
5.32177e-05
3.77529e-05
5.35145e-05
7.27169e-05
5.42294e-05
9.82957e-05
0.000161941
0.000196808
0.000175266
0.00011355
8.7208e-05
0.000168703
0.000160402
0.000151188
5.3233e-05
0.000170693
0.000184241
0.000224534
0.000265089
0.000300145
0.000251831
0.000203663
0.000106887
0.000209389
0.000228179
9.21123e-05
8.90583e-05
0.000110999
0.000168301
0.000357666
0.000292021
0.000173767
0.000131281
0.00020092
0.000265497
0.000236842
0.000135569
0.000224796
0.000344702
0.000217637
0.000192935
0.000194903
9.7071e-05
0.000190813
0.000226264
0.0001965
0.00018689
0.00023348
0.000333802
0.000410441
0.000384524
0.000276168
0.000123094
6.31512e-05
0.000106984
7.7825e-05
2.32807e-05
8.03806e-05
0.000102364
4.8928e-05
0.000129882
6.58092e-05
0.00017886
0.000220537
0.000214769
0.000188351
0.000187147
0.000152327
7.91274e-05
6.7376e-05
6.21675e-05
4.3973e-05
3.74297e-05
3.9384e-05
4.77937e-05
9.14465e-05
0.000150665
0.000179422
0.000163514
0.000105311
5.94776e-05
0.000187419
0.000202926
0.000159041
6.08657e-05
0.000139263
0.000174581
0.000200578
0.000269211
0.000390584
0.000354941
0.000198384
7.53847e-05
0.000151639
0.000216784
0.000112078
6.97293e-05
0.000166001
0.000112249
0.000295903
0.000333595
0.000173799
0.000141618
0.000208636
0.000281443
0.000250209
0.000192489
0.000126407
0.000303786
0.000231621
0.000202678
0.000204528
9.13164e-05
0.000143986
0.00021352
0.000227372
0.000202909
0.000226672
0.000324088
0.000371363
0.000296387
0.000165788
3.68185e-05
9.42721e-05
0.000103796
6.9116e-05
2.06279e-05
8.59392e-05
8.74094e-05
0.00010506
9.95982e-05
6.54281e-05
0.000174259
0.000222441
0.000161802
0.000162794
0.000190039
0.000154876
8.16248e-05
6.56919e-05
7.59622e-05
6.6299e-05
4.26177e-05
3.59573e-05
4.27415e-05
9.61269e-05
0.000131368
0.0001419
0.000134486
9.43998e-05
5.00567e-05
0.000181302
0.00024873
0.000232245
0.000151935
9.98981e-05
0.000164269
0.000203707
0.000298803
0.00042579
0.000391179
0.000207315
5.62963e-05
0.000120252
0.00021236
0.000152747
3.90128e-05
0.000175736
0.000168847
0.000204521
0.000341747
0.000187236
0.000150601
0.000222486
0.000294373
0.000249152
0.000259856
0.000119739
0.000237521
0.000231328
0.000208285
0.000213901
0.000102535
9.71161e-05
0.000180265
0.000242262
0.000215105
0.000211898
0.000280128
0.000286961
0.000280155
0.000227741
0.000118807
0.000106061
9.26109e-05
5.97024e-05
2.81994e-05
7.40193e-05
0.000123752
0.000187605
0.000105212
7.99805e-05
0.000190275
0.000211278
0.000103503
0.000146307
0.000145213
0.000117174
7.33064e-05
7.64098e-05
9.45548e-05
9.09206e-05
6.24973e-05
6.0484e-05
4.35132e-05
0.000114144
0.000114878
0.000106421
0.000104889
8.70899e-05
4.83639e-05
0.000159063
0.000254967
0.000317125
0.000266796
0.000124179
0.000157717
0.000246254
0.000351356
0.000412567
0.000362351
0.000181467
4.32347e-05
0.000105048
0.0002052
0.000197181
8.31816e-05
0.000129374
0.000212895
0.000144523
0.000309422
0.000211306
0.000155661
0.00023758
0.000303091
0.00023968
0.000292481
0.000235217
0.000165395
0.000213512
0.000211808
0.000219195
0.000111772
7.32255e-05
0.000155371
0.00022954
0.000196369
0.000173102
0.000204684
0.000282918
0.000308977
0.000232426
0.000108259
9.45829e-05
8.26322e-05
6.21133e-05
3.95798e-05
7.44697e-05
0.000140106
0.000207509
0.000117019
8.37075e-05
0.000171008
0.000174872
0.000114942
9.96011e-05
0.000140533
0.000124451
9.0905e-05
0.00010034
0.000111109
0.000109707
8.12956e-05
7.83266e-05
9.27423e-05
0.000121718
0.000119004
8.66241e-05
8.84666e-05
8.43077e-05
5.33983e-05
0.000138334
0.00025259
0.000340354
0.000343027
0.00020006
0.000179135
0.000289425
0.000368627
0.00035344
0.000299845
0.000144293
5.06742e-05
0.000111399
0.000196128
0.000228355
0.00014279
9.43395e-05
0.000175718
0.000149087
0.000252863
0.000231393
0.000157659
0.000250517
0.000307696
0.000229683
0.000276676
0.000320513
0.000151303
0.000180327
0.000214952
0.000217784
0.000121868
8.64411e-05
0.000153503
0.000182654
0.000134169
0.000119941
0.00016083
0.000208687
0.000219488
0.000166694
0.000101216
0.000118331
9.48819e-05
7.58588e-05
6.08439e-05
8.80635e-05
0.000122211
0.000161162
0.000100084
5.43193e-05
0.000102436
0.000166782
0.000145005
0.000245656
0.000296028
0.000225398
0.000139717
0.000116745
0.000114705
0.00011592
9.47762e-05
7.78756e-05
0.000131784
0.000104222
0.000125257
8.25382e-05
8.81876e-05
7.34117e-05
7.16946e-05
0.000117589
0.000248807
0.00033116
0.000357108
0.00025655
0.00021775
0.000287221
0.000282849
0.000237986
0.000223125
0.000123701
5.68265e-05
0.000132237
0.000197277
0.000254163
0.00018748
0.000108797
0.000128905
0.000148509
0.000189992
0.000235233
0.000161638
0.000256934
0.000306644
0.0002247
0.000228538
0.00033852
0.000189123
0.000143009
0.000216172
0.000208095
0.000135658
0.000118473
0.000152863
0.000126393
5.37635e-05
0.000105525
0.000145949
0.000141118
0.000172264
0.000156747
0.000111319
0.000132927
0.00010586
9.33091e-05
8.08432e-05
9.90235e-05
0.000126692
0.000123537
8.58024e-05
9.12616e-05
0.000170005
0.000169114
0.000189115
0.000330692
0.000367131
0.00029052
0.000182815
0.000123515
0.000105613
0.000108449
0.000104
6.6271e-05
0.000135026
8.47139e-05
0.00011292
8.92167e-05
9.19874e-05
5.80945e-05
8.61493e-05
9.38243e-05
0.000223288
0.000306055
0.000338894
0.000276536
0.000235712
0.000229724
0.000138489
0.000128729
0.000140858
0.000136859
7.01458e-05
0.000156445
0.000204314
0.000276107
0.000234033
0.000133951
0.000151581
0.00015549
0.00012234
0.000219111
0.000166868
0.000255714
0.000299647
0.000214023
0.000169611
0.000311093
0.000214066
0.000111397
0.000210652
0.000197419
0.00015993
0.000144224
0.000146333
9.38493e-05
4.29358e-05
0.000136458
0.000148254
0.000134023
0.00014386
0.000139465
9.84573e-05
0.000125426
0.000107857
0.000112247
9.83576e-05
9.52637e-05
0.000183116
0.0002058
0.000133145
0.00013541
0.000218188
0.000158256
0.000196453
0.000291984
0.000319327
0.000278781
0.000195412
0.000132934
9.64502e-05
9.1824e-05
0.000110968
6.49518e-05
0.000115754
9.22304e-05
9.08378e-05
0.000101209
8.34717e-05
7.56348e-05
7.4876e-05
9.48399e-05
0.000182876
0.000263149
0.000305314
0.000268615
0.000205222
0.000156566
8.64957e-05
0.000152626
7.86149e-05
0.000158322
8.97838e-05
0.000179289
0.000206466
0.000269613
0.000270508
0.000177872
0.000180132
0.000192947
6.95391e-05
0.000191602
0.000179754
0.000249693
0.000285662
0.000203801
0.000101564
0.000259724
0.000231767
9.57575e-05
0.000197739
0.000187024
0.000175294
0.000138888
0.000147242
8.21119e-05
8.84145e-05
0.000157817
0.000132441
0.000108383
0.000106816
0.000123125
8.95805e-05
0.00011576
0.000104931
0.000136468
0.000118044
8.79577e-05
0.000176049
0.000232167
0.000166873
0.00013572
0.000169345
0.000163722
0.00018316
0.000159524
0.000155574
0.000183037
0.000169035
0.000141887
9.82173e-05
7.21117e-05
0.000115437
8.59563e-05
9.9777e-05
0.000103947
7.55709e-05
0.000107487
6.32637e-05
0.000116074
4.47998e-05
0.000122969
0.000171395
0.000195948
0.000253949
0.000241591
0.000158186
0.000101143
6.35739e-05
0.000145263
6.10803e-05
0.000152001
9.31077e-05
0.000185578
0.00021676
0.000228699
0.000256607
0.000202487
0.000180931
0.000222921
9.1264e-05
0.000168393
0.000204626
0.000232287
0.000264626
0.000183197
6.32807e-05
0.000188427
0.000235161
0.000115712
0.000174774
0.000168367
0.000168347
0.000133645
0.00015435
9.00534e-05
0.000142326
0.000162139
0.000107114
8.73907e-05
7.91299e-05
0.000103669
8.11952e-05
0.000108943
9.56282e-05
0.000158222
0.000150348
9.78811e-05
0.000120432
0.000193639
0.00017529
0.000146007
0.00015352
0.000186748
0.000190887
0.000123925
4.71982e-05
8.70235e-05
0.000137555
0.000147661
0.000106598
5.43346e-05
0.000112775
0.000108476
9.58679e-05
9.1616e-05
6.61112e-05
9.70601e-05
4.96023e-05
0.000138946
9.22165e-05
0.000129051
0.000181541
0.000121698
0.000170954
0.000201434
0.000130683
9.10902e-05
5.80435e-05
9.65887e-05
8.37226e-05
0.000112467
0.000109415
0.000122004
0.000204325
0.000178651
0.000189106
0.000175039
0.000148936
0.000217511
0.000131937
0.000169376
0.000227912
0.000198525
0.000235737
0.000172879
0.000190689
0.000200381
0.000244701
0.000172597
0.000136268
0.000137107
0.000121811
0.000119151
0.000138754
0.000119247
0.000191196
0.000160914
0.000101391
0.000101849
8.93569e-05
9.0603e-05
8.19551e-05
0.000101221
8.72571e-05
0.000162216
0.000183803
0.000124495
0.000113655
0.000145216
0.000155602
0.000165387
0.000223456
0.000177486
0.0001718
0.000150894
7.72355e-05
4.70788e-05
0.000124957
0.000161685
0.000111916
4.32304e-05
0.0001036
0.00011853
9.96377e-05
5.63976e-05
5.71334e-05
7.13502e-05
4.69928e-05
0.000123705
0.000146088
9.40196e-05
0.000150879
0.000149838
0.000113932
0.000163607
0.000122806
9.74813e-05
9.1763e-05
5.76134e-05
0.00010072
8.00863e-05
0.000139196
8.54888e-05
0.000135322
0.000154099
0.000116465
0.00011407
9.77956e-05
0.000176855
0.000170828
0.000205467
0.000222412
0.000182441
0.000215721
0.000186383
0.000272097
0.000296306
0.000356769
0.000276763
0.000146843
0.000121227
8.61734e-05
0.000119718
0.000113088
0.000156667
0.000206715
0.000147201
0.000111549
0.000133406
0.000123142
9.70677e-05
0.000100502
0.00010055
8.63155e-05
0.000143918
0.000194614
0.000152217
0.00013773
0.000125072
0.000113221
0.000148685
0.000238042
0.000161022
9.98061e-05
0.000135159
6.34641e-05
1.29297e-05
0.000109345
0.000183959
0.000130218
4.40957e-05
8.76525e-05
0.000117244
0.000103592
3.6269e-05
5.48309e-05
5.18539e-05
4.20278e-05
9.06594e-05
0.000141071
8.46251e-05
8.86297e-05
0.000164166
0.000151535
0.00015179
0.000114055
9.80869e-05
0.000104316
3.94265e-05
0.000107491
9.13886e-05
0.000123438
0.000178271