/*--------------------------------*- C++ -*----------------------------------*\
  =========                 |
  \\      /  F ield         | OpenFOAM: The Open Source CFD Toolbox
   \\    /   O peration     | Website:  https://openfoam.org
    \\  /    A nd           | Version:  8
     \\/     M anipulation  |
\*---------------------------------------------------------------------------*/
FoamFile
{
    version     2.0;
    format      ascii;
    class       volScalarField;
    location    "0";
    object      p;
}
// * * * * * * * * * * * * * * * * * * * * * * * * * * * * * * * * * * * * * //

dimensions      [0 2 -2 0 0 0 0];

internalField   nonuniform List<scalar> 
350000
(
0.0127964
0.002544
-0.000654251
0.0122696
0.018056
0.00655502
-0.00210272
-0.00254612
0.00104648
0.00437076
0.00670315
0.00902884
0.00937668
0.00652042
0.00265086
0.000661813
0.00177324
0.00315324
0.00167352
0.000406565
0.00283081
0.00677565
0.00949204
0.0106836
0.00911371
0.00744328
0.00654532
0.00405779
0.0017364
0.00382144
0.00915506
0.0109991
0.00683652
0.00303233
0.00383263
0.00434647
0.00143999
-0.00228321
-0.00361584
-0.00246471
0.00360922
0.0133417
0.019696
0.0175234
0.0113837
0.00804088
0.00664075
0.0034904
0.00306807
0.00964817
0.0143681
0.0100462
0.00219794
-0.00222282
-0.00149664
0.00190983
0.00404945
0.00417374
0.00529904
0.00689497
0.00816422
0.00933973
0.00713473
0.000135583
-0.00567459
-0.00452039
0.000715696
0.00502723
0.0108302
0.0163263
0.012721
0.00249303
-0.000760026
0.0121526
0.018012
0.00656712
-0.00208337
-0.00252936
0.00105672
0.00437327
0.00670163
0.00902757
0.00937662
0.00652093
0.00265674
0.000675946
0.00179097
0.0031697
0.00168326
0.000399744
0.00280677
0.00675703
0.00948529
0.0106822
0.00911529
0.00744776
0.00655273
0.004065
0.00174025
0.00381631
0.00913964
0.0109901
0.00684073
0.00304034
0.00384648
0.00437675
0.00149106
-0.00222465
-0.00357687
-0.00248283
0.00353088
0.0132606
0.0196497
0.0175144
0.0113945
0.00805228
0.00664762
0.00348786
0.00303878
0.00959551
0.0143235
0.0100281
0.00219387
-0.00223712
-0.00153587
0.00186598
0.00402917
0.00417824
0.00531419
0.00690664
0.00815863
0.00931803
0.00712134
0.000144871
-0.00564882
-0.00449881
0.00070346
0.00497162
0.0107231
0.0162129
0.0126674
0.00243776
-0.000915091
0.0119852
0.0180058
0.00662416
-0.00205501
-0.00252269
0.00105265
0.00436309
0.00669236
0.00902336
0.00937765
0.00652515
0.00266722
0.00068842
0.00180253
0.00318242
0.00168883
0.000383149
0.00277338
0.00673889
0.0094827
0.0106841
0.00911887
0.00745461
0.00656202
0.00407231
0.00174021
0.00380289
0.00912171
0.0109874
0.0068502
0.00304993
0.00386724
0.00441748
0.0015473
-0.00217445
-0.00355801
-0.00252979
0.00343004
0.0131784
0.0196226
0.0175283
0.0114144
0.00805991
0.00664246
0.00346991
0.00298726
0.00953405
0.0142911
0.0100222
0.00218818
-0.00226547
-0.00159058
0.00181752
0.00401765
0.00419157
0.00533082
0.00691647
0.00814424
0.00928945
0.00711445
0.000165981
-0.00562386
-0.00449042
0.000679428
0.00489667
0.010586
0.0160958
0.0126538
0.00238354
-0.00111908
0.0117695
0.0180527
0.00673394
-0.00202688
-0.00254023
0.00102398
0.00433533
0.00667461
0.00901751
0.00938219
0.00653537
0.00268172
0.000696706
0.00180586
0.00319048
0.0016964
0.000357233
0.00273124
0.00672211
0.00948455
0.0106899
0.00912516
0.00746516
0.006575
0.0040793
0.00173533
0.00378233
0.0091057
0.0109939
0.00686471
0.00305946
0.00389099
0.00446033
0.00159661
-0.00214612
-0.00356871
-0.00260677
0.00331058
0.0131041
0.0196247
0.0175679
0.0114376
0.00805563
0.00662232
0.0034349
0.00292029
0.00947953
0.0142868
0.0100345
0.00217836
-0.00231007
-0.00165858
0.0017708
0.00402199
0.00421657
0.00534651
0.00692169
0.00812318
0.00925842
0.00711703
0.000196483
-0.00560773
-0.00449938
0.000651926
0.00482302
0.0104425
0.0160005
0.0126777
0.00232839
-0.00137539
0.0114988
0.0181489
0.00690115
-0.00200389
-0.00258739
0.000967651
0.00428865
0.00664834
0.00901069
0.00939133
0.0065523
0.00269979
0.000702422
0.00180099
0.00320298
0.00170361
0.000324118
0.00268063
0.00670564
0.00948922
0.0106992
0.00913465
0.0074801
0.00659213
0.00408647
0.00173062
0.00375468
0.00909128
0.0110085
0.00688371
0.00306762
0.00391445
0.00450106
0.00163664
-0.0021417
-0.00360601
-0.00270855
0.00317074
0.0130336
0.0196532
0.0176314
0.0114616
0.00803709
0.00658617
0.00338231
0.00283928
0.00943619
0.0143097
0.0100619
0.00216182
-0.00237133
-0.00174007
0.00172406
0.00404155
0.00425364
0.00535966
0.00692112
0.00809803
0.00922633
0.00712816
0.000234774
-0.00560309
-0.00452674
0.000625853
0.004759
0.0102924
0.0159198
0.0127292
0.00226597
-0.00168517
0.0111749
0.0182873
0.00712928
-0.00198933
-0.00266765
0.000881587
0.00422182
0.0066134
0.00900339
0.00940552
0.00657604
0.00272116
0.00070015
0.001788
0.00321759
0.00171349
0.000286462
0.002623
0.00668967
0.00949526
0.0107109
0.0091479
0.00750019
0.00661325
0.00409373
0.00171834
0.00371922
0.00907716
0.0110299
0.00690616
0.00307197
0.00393387
0.00453662
0.00166633
-0.00216398
-0.00366948
-0.00283416
0.00300989
0.0129634
0.0197055
0.0177167
0.0114845
0.0080033
0.00653341
0.00331099
0.00274296
0.00940077
0.0143574
0.0101008
0.00213558
-0.00244829
-0.00183316
0.0016764
0.00407486
0.00430272
0.00536829
0.00691216
0.00807001
0.00919472
0.00714663
0.000279766
-0.00561093
-0.00457431
0.000603192
0.0047142
0.0101321
0.0158385
0.01279
0.00218596
-0.002053
0.0108063
0.0184584
0.00741976
-0.00198574
-0.0027846
0.000763293
0.00413326
0.00656968
0.00899633
0.00942501
0.00660625
0.0027467
0.000688882
0.00176452
0.0032346
0.0017291
0.000247262
0.00256057
0.00667554
0.00950174
0.0107233
0.00916542
0.00752682
0.00663808
0.00410031
0.00170091
0.00367791
0.00906104
0.0110567
0.00693071
0.00306947
0.00394481
0.00456259
0.00168438
-0.00219319
-0.00376272
-0.00298467
0.00282826
0.012891
0.0197791
0.0178212
0.0115042
0.00795354
0.00646382
0.00322015
0.00262888
0.00937075
0.0144292
0.0101477
0.00209655
-0.00253927
-0.00193393
0.00162904
0.00412048
0.00436368
0.00537092
0.00689091
0.00803879
0.00916575
0.00717112
0.000330391
-0.00563078
-0.00464396
0.000582962
0.00469464
0.00995838
0.015738
0.0128298
0.00207003
-0.00248989
0.0103997
0.018648
0.00777151
-0.00199503
-0.00294204
0.000610057
0.00402127
0.00651718
0.00899079
0.00945029
0.00664225
0.0027714
0.000667937
0.00173256
0.00325448
0.00175311
0.000209488
0.00249538
0.00666506
0.0095086
0.0107334
0.00918704
0.00756232
0.0066666
0.00410505
0.00167914
0.00363282
0.00903677
0.0110836
0.00695611
0.00305696
0.00394249
0.00457408
0.00168978
-0.00223487
-0.00389229
-0.00316487
0.002627
0.0128134
0.0198699
0.0179398
0.0115181
0.00788751
0.00636756
0.00311051
0.00249431
0.00934256
0.014525
0.0101997
0.00204195
-0.00264168
-0.00203696
0.00158453
0.0041768
0.00443645
0.00536773
0.00685352
0.00800448
0.00914161
0.00720033
0.000385522
-0.00566058
-0.00473684
0.000560052
0.00469211
0.00976693
0.0155989
0.0128238
0.00188121
-0.00301535
0.00995145
0.0188384
0.00818019
-0.00201863
-0.00314386
0.000419156
0.00388415
0.00645601
0.00898875
0.00948278
0.0066829
0.0027954
0.000636638
0.00168926
0.00327648
0.00178824
0.000175627
0.00242842
0.00665964
0.00951667
0.0107384
0.00921078
0.00760996
0.00669953
0.00410667
0.001654
0.00358246
0.00900536
0.0111081
0.00698121
0.00303155
0.00392211
0.00456639
0.00168224
-0.00228851
-0.0040676
-0.00338677
0.00240951
0.0127275
0.0199716
0.0180668
0.0115228
0.00780554
0.00626009
0.00298514
0.00233861
0.0093118
0.0146439
0.0102512
0.00196856
-0.00275101
-0.00213247
0.00154566
0.00424301
0.00452111
0.00536141
0.00679803
0.00795683
0.00912338
0.00723329
0.000443859
-0.00569722
-0.00485296
0.00052465
0.00470283
0.00954861
0.0154004
0.0127899
0.00157287
-0.00366098
0.00944185
0.0190095
0.00863721
-0.00205798
-0.00339407
0.000187915
0.00372036
0.00638639
0.00899279
0.00952555
0.00672754
0.00281712
0.000593609
0.00163238
0.00329959
0.00183773
0.000147672
0.00235872
0.00665891
0.00952693
0.0107367
0.00923161
0.00767359
0.00673867
0.00410375
0.00162636
0.00352875
0.00896227
0.0111305
0.0070047
0.00299045
0.00387909
0.00453561
0.00166238
-0.0023487
-0.00429834
-0.00367535
0.00217144
0.0126314
0.0200764
0.0181941
0.0115139
0.00770844
0.00614352
0.00284957
0.00216625
0.009276
0.0147895
0.0103055
0.00186837
-0.00286781
-0.00220626
0.0015153
0.00432049
0.00461874
0.00535735
0.00672579
0.00789191
0.00910952
0.00726965
0.000503664
-0.00573766
-0.00499042
0.000463874
0.00471375
0.0092891
0.0151066
0.0127169
0.00117031
-0.00446549
0.00883375
0.0191375
0.00912944
-0.00211529
-0.00369698
-8.62963e-05
0.00352869
0.00630885
0.00900565
0.00958355
0.00677793
0.00283056
0.000536114
0.00155889
0.00332276
0.00190576
0.000127612
0.00228264
0.00665947
0.0095371
0.0107297
0.00924133
0.00775632
0.00678729
0.00409437
0.00159699
0.00347702
0.00890741
0.0111502
0.00702555
0.00292986
0.00380891
0.00447896
0.00163162
-0.00240978
-0.0045848
-0.0040549
0.00186471
0.0125086
0.0201733
0.018312
0.0114861
0.00759685
0.00602019
0.00271102
0.001988
0.0092401
0.0149699
0.0103692
0.00172835
-0.00302169
-0.00225467
0.00150473
0.00440654
0.00473159
0.00536268
0.00664272
0.00780581
0.00909411
0.00730972
0.000562305
-0.00578055
-0.00514575
0.000367308
0.00470786
0.00898371
0.014657
0.0124516
0.000762703
-0.00545101
0.00807689
0.0191917
0.00964065
-0.00219402
-0.00405779
-0.000406139
0.00330815
0.00622452
0.00902981
0.00966283
0.00683925
0.00282725
0.000460366
0.00146522
0.00334492
0.00199795
0.000118311
0.00219407
0.0066545
0.00954076
0.0107199
0.00923139
0.00785798
0.00685052
0.00407544
0.00156588
0.00343399
0.00884619
0.0111682
0.00704781
0.00284403
0.003706
0.00439472
0.0015917
-0.00245937
-0.00491655
-0.00452406
0.00141781
0.0123043
0.0202419
0.018408
0.0114323
0.00747048
0.00589361
0.00257662
0.00181851
0.00921856
0.0152029
0.0104692
0.00156625
-0.00326443
-0.00234962
0.00150129
0.00446598
0.00485645
0.00538362
0.00656038
0.00770338
0.00906695
0.00734752
0.000613898
-0.00582777
-0.00531654
0.000235186
0.00464917
0.00865698
0.0140271
0.0119113
0.000268111
-0.00659138
0.00711563
0.0191323
0.0101529
-0.0022973
-0.00448339
-0.000774526
0.00305764
0.00613516
0.0090674
0.00976848
0.00691987
0.00280499
0.000345661
0.00135052
0.00336554
0.00212182
0.00012463
0.00208579
0.00662905
0.00952398
0.0107059
0.00919861
0.00797194
0.0069357
0.0040426
0.00153035
0.00340659
0.0087882
0.011191
0.00707348
0.00272923
0.00356217
0.00428183
0.001544
-0.00254237
-0.0052815
-0.00510091
0.000835612
0.0119629
0.0202503
0.0184648
0.0113434
0.00732758
0.00576845
0.00245628
0.00167254
0.00922962
0.0155138
0.0106471
0.00144615
-0.00351363
-0.00258916
0.00141559
0.00449095
0.00496989
0.00542386
0.00649322
0.00760167
0.00901838
0.00736781
0.000640313
-0.00588639
-0.00546975
8.24751e-05
0.00451411
0.0083484
0.0133121
0.011183
-0.000430522
-0.00780268
0.0058961
0.0189191
0.0106462
-0.00242041
-0.00498185
-0.00119493
0.00277526
0.00604257
0.00912082
0.00990243
0.00702972
0.00276797
0.000169659
0.00118065
0.0033827
0.0022874
0.000154052
0.00195196
0.00656862
0.00946522
0.0106759
0.00914939
0.00808508
0.00705203
0.00399195
0.00148247
0.00339996
0.00874271
0.0112317
0.0071156
0.00259334
0.00337058
0.00414069
0.00149493
-0.00264527
-0.00566758
-0.00576904
0.00015216
0.0114669
0.0201595
0.0184596
0.0112067
0.00716431
0.00564993
0.00242239
0.00156459
0.00928592
0.0159249
0.0109386
0.00138625
-0.00371063
-0.00288824
0.00118947
0.00436881
0.00497026
0.00548798
0.00645563
0.00752307
0.00895082
0.00735011
0.00060545
-0.00597245
-0.0056392
-7.31111e-05
0.00430394
0.00806931
0.0126448
0.0102995
-0.00108076
-0.00913699
0.0043631
0.0184721
0.011091
-0.00253818
-0.00555614
-0.001671
0.00245803
0.00594673
0.00919317
0.0100656
0.00717668
0.00272847
-8.41865e-05
0.00093876
0.00339557
0.00250668
0.000216323
0.001791
0.00645813
0.00933855
0.0106043
0.00909218
0.00817753
0.00720932
0.00392503
0.00140765
0.00341582
0.00871538
0.0113033
0.00719196
0.00245856
0.00313662
0.00397754
0.00145037
-0.00275662
-0.0060328
-0.00651082
-0.000606805
0.0108177
0.0198749
0.0183651
0.0110053
0.00697362
0.0055408
0.0024067
0.00151137
0.00939033
0.0164438
0.0113628
0.00140994
-0.00385041
-0.00312872
0.000844807
0.00411328
0.00487691
0.00557517
0.0064591
0.00748044
0.00887712
0.00728718
0.000486891
-0.00609875
-0.00579626
-0.000238114
0.00407505
0.0077808
0.0120646
0.00933779
-0.00155574
-0.0107833
0.00248258
0.0177326
0.0114337
-0.00259702
-0.00618702
-0.00220342
0.0021034
0.00584312
0.00928759
0.0102463
0.00736125
0.00269997
-0.000414876
0.000584825
0.00348104
0.00279766
0.000321981
0.00160779
0.00628599
0.0091215
0.0104525
0.00902663
0.00823782
0.00743812
0.00385619
0.00128711
0.00344462
0.00870741
0.0114098
0.00731907
0.0023523
0.0028738
0.00380907
0.00140797
-0.00290077
-0.00641264
-0.00739509
-0.0012793
0.00998253
0.0194613
0.0181493
0.0107188
0.00674364
0.00544063
0.00242863
0.00153665
0.00953595
0.0170543
0.0119111
0.0014446
-0.00396321
-0.00328768
0.000461671
0.00372133
0.00465667
0.0056528
0.00649911
0.00746921
0.00880107
0.00718237
0.000293411
-0.00625458
-0.00585001
-0.000417584
0.00391779
0.00746658
0.0115667
0.00849831
-0.00208035
-0.0126047
0.00030675
0.0166269
0.0116474
-0.00252423
-0.00680707
-0.00278033
0.00171332
0.00572221
0.00940406
0.0104389
0.00757072
0.00269451
-0.000805474
7.53208e-05
0.00349409
0.00322187
0.000481857
0.00141483
0.00604652
0.00880538
0.0101732
0.00892458
0.0082659
0.0077184
0.00380112
0.00110462
0.00347114
0.00871494
0.0115449
0.00750486
0.00230216
0.00258415
0.00365833
0.00138481
-0.00310006
-0.00673702
-0.00761289
-0.00157728
0.00916522
0.01885
0.0177458
0.0103288
0.00645631
0.00534511
0.00250443
0.00168508
0.00971145
0.0177075
0.0125535
0.00148676
-0.00409797
-0.00338371
9.44689e-05
0.00321684
0.00430274
0.00564325
0.00656773
0.00748339
0.00870487
0.00704078
4.40563e-05
-0.0064406
-0.0057401
-0.000542852
0.00389002
0.00725378
0.0112321
0.00785886
-0.00287948
-0.0141339
-0.00213521
0.0150754
0.0117128
-0.0022518
-0.00728501
-0.00335981
0.00129962
0.00557552
0.00953406
0.010635
0.00777845
0.00271398
-0.0012288
-0.000597718
0.00339042
0.00370593
0.000707081
0.00122716
0.00574216
0.00840303
0.00972057
0.00873063
0.00826761
0.00802676
0.00379163
0.000852738
0.00347282
0.0087291
0.0116966
0.00773228
0.00225542
0.00225643
0.00356471
0.00140372
-0.00332462
-0.00691216
-0.00742697
-0.00145925
0.0085828
0.0178558
0.0172211
0.00982391
0.00608807
0.00524385
0.00264053
0.0019404
0.009919
0.0183252
0.0132449
0.00152894
-0.00432244
-0.00347511
-0.000246641
0.00263416
0.00385875
0.0055301
0.00654199
0.0074468
0.00855546
0.00686296
-0.000238842
-0.00669182
-0.0055037
-0.000416183
0.00398582
0.00715001
0.0110835
0.00745994
-0.00369106
-0.0154747
-0.00482314
0.0130585
0.0115364
-0.00179509
-0.0074504
-0.00385143
0.000889636
0.00540648
0.00965774
0.0108316
0.00794522
0.00273978
-0.00165531
-0.00139937
0.00309426
0.00428953
0.00100857
0.00104427
0.00539573
0.00794818
0.00906566
0.00836524
0.00823118
0.00833446
0.00386193
0.000532502
0.0034238
0.00873307
0.0118535
0.00797537
0.00221175
0.00188423
0.00339395
0.00148526
-0.00345641
-0.00681519
-0.00669642
-0.00100085
0.0082698
0.0167794
0.0165213
0.00920224
0.00561451
0.00511906
0.00282963
0.00230424
0.0101386
0.0188154
0.0139203
0.00157243
-0.00465845
-0.00365071
-0.000570279
0.00200117
0.00337601
0.00536068
0.00635575
0.00725579
0.00831074
0.00663685
-0.000534186
-0.00705022
-0.00529637
-8.92099e-05
0.00411236
0.00716453
0.0110539
0.00743134
-0.00420321
-0.0167228
-0.00756045
0.0107065
0.0109838
-0.00128166
-0.00719762
-0.00412403
0.000531123
0.0052333
0.0097521
0.0110347
0.00802896
0.00272667
-0.00205997
-0.00226775
0.00256122
0.00480671
0.00139593
0.000845276
0.00501821
0.00748059
0.00822358
0.00773575
0.00811099
0.00864065
0.0040365
0.000145668
0.00329134
0.00870813
0.0119944
0.00820609
0.00216679
0.00145659
0.00314018
0.0016253
-0.0033128
-0.00632542
-0.0057299
-0.000377635
0.00805372
0.0157731
0.0155877
0.00846686
0.00501953
0.00495411
0.00304035
0.0027899
0.010305
0.0190815
0.0144993
0.00161098
-0.0050762
-0.00394568
-0.000895468
0.00134478
0.0028883
0.00509654
0.00600987
0.00682124
0.00791681
0.00633824
-0.000848372
-0.00751019
-0.00524882
0.000382184
0.00423394
0.00727896
0.0111616
0.00771872
-0.00446611
-0.0178882
-0.0100291
0.0082304
0.0101756
-0.000881607
-0.00651219
-0.00411264
0.000279091
0.00507678
0.00980355
0.0112528
0.00802283
0.00259981
-0.00244085
-0.00314439
0.00181615
0.00515799
0.00188261
0.000618701
0.00460339
0.00702648
0.00727275
0.00676898
0.00782109
0.00886097
0.00432754
-0.000289171
0.00302513
0.00862737
0.01209
0.00839697
0.00213146
0.00101598
0.00278203
0.00179926
-0.00279563
-0.00547587
-0.00466213
0.000250174
0.00781255
0.0148772
0.0146202
0.00762751
0.00428973
0.00473137
0.00322132
0.00322221
0.0103455
0.0190897
0.0149113
0.00162557
-0.00552929
-0.0043242
-0.00123528
0.000702889
0.00242513
0.00479809
0.00557198
0.00616511
0.00733195
0.00595132
-0.00122485
-0.00800851
-0.00532042
0.000890392
0.00437305
0.00747878
0.011336
0.00817188
-0.00460072
-0.018997
-0.0121273
0.00581252
0.0092248
-0.00077679
-0.00592895
-0.00393884
0.000110672
0.00492716
0.0098019
0.0114766
0.00800479
0.00232836
-0.00283218
-0.00397645
0.000924698
0.00527626
0.00249868
0.000397938
0.00411831
0.00660105
0.00632164
0.00547128
0.00725097
0.00896449
0.00472357
-0.000693679
0.00258176
0.0084502
0.0120941
0.00852019
0.00214984
0.000555086
0.0023238
0.00188083
-0.00211671
-0.00455051
-0.00365537
0.00083481
0.0075721
0.0140525
0.0136857
0.0067233
0.00341401
0.00436777
0.00336609
0.00349328
0.0102067
0.0187636
0.0151115
0.00161078
-0.00596846
-0.0047193
-0.0015834
0.000116534
0.00202383
0.00451103
0.00514211
0.00543538
0.00656666
0.00548234
-0.00167979
-0.00840462
-0.00541384
0.00132925
0.00453204
0.00772027
0.0115068
0.00879805
-0.00451471
-0.02009
-0.0139894
0.00383059
0.00825158
-0.000752485
-0.00555733
-0.00363221
-7.23465e-05
0.00471515
0.00970988
0.0116679
0.00806035
0.00204659
-0.00320821
-0.00470315
-3.04285e-05
0.00512513
0.0032927
0.000261943
0.00352715
0.00621256
0.0054429
0.00396292
0.00630984
0.00894768
0.00519899
-0.000956049
0.00199393
0.00813565
0.0119519
0.00853993
0.00206228
8.18634e-05
0.00173258
0.00173948
-0.00162568
-0.00382273
-0.00276306
0.00143248
0.00740901
0.0132947
0.012832
0.00576167
0.00238705
0.00375898
0.00323401
0.00349124
0.00988245
0.0181256
0.015092
0.001597
-0.00633529
-0.00506333
-0.00191339
-0.000382238
0.00172173
0.00426438
0.00480667
0.00473702
0.00568653
0.00495297
-0.00213796
-0.00857019
-0.00543999
0.00165012
0.00463752
0.00791061
0.0117696
0.00967427
-0.00388169
-0.0210704
-0.0156826
0.00226928
0.00728249
-0.000758886
-0.00539857
-0.00310518
-0.000166628
0.00442042
0.00946381
0.0117841
0.0081903
0.00186819
-0.00338313
-0.00519487
-0.000952439
0.00474173
0.00408802
0.000316793
0.0028304
0.0058501
0.004668
0.00242404
0.0049809
0.00875126
0.00560584
-0.00101686
0.00134987
0.00766937
0.0116234
0.00841603
0.00188893
-0.000412065
0.0010756
0.00133475
-0.00143719
-0.00327937
-0.00185011
0.00215117
0.00738073
0.0126083
0.0120667
0.00474681
0.00121069
0.00286125
0.00278874
0.00314252
0.0093754
0.017164
0.0148642
0.00165186
-0.00656936
-0.00533483
-0.00221887
-0.000775849
0.0015535
0.00404726
0.00459939
0.00419388
0.00483615
0.00441754
-0.00246362
-0.00844819
-0.00531162
0.00184843
0.0046178
0.00790624
0.0122367
0.0108514
-0.00221263
-0.0212433
-0.0173641
0.000950389
0.00627541
-0.00112352
-0.0055151
-0.00241343
8.74343e-05
0.00414408
0.00903884
0.0117898
0.00835903
0.00178665
-0.00332349
-0.00527157
-0.00171614
0.00422412
0.00479503
0.000630769
0.0020923
0.00548036
0.00403642
0.000967553
0.00334716
0.00829147
0.00602917
-0.000883244
0.000727991
0.00705782
0.0111053
0.00811598
0.00157861
-0.00096693
0.000299168
0.00075726
-0.00137348
-0.00267246
-0.000761256
0.00308035
0.00754614
0.0120137
0.0113749
0.00370122
-9.04775e-05
0.00172473
0.0020202
0.0024785
0.00866993
0.0160177
0.0142578
0.00185171
-0.00661409
-0.00553877
-0.00254339
-0.00107238
0.00155292
0.00381725
0.00449409
0.00387781
0.00418106
0.00397071
-0.00253314
-0.00803297
-0.00499715
0.00191326
0.00445075
0.00760378
0.012689
0.0120699
0.000785955
-0.0192656
-0.0185289
-0.0002746
0.00517436
-0.00191924
-0.00589391
-0.00174753
0.000685485
0.0040095
0.00848618
0.0116719
0.00856027
0.00177019
-0.00318243
-0.00496985
-0.00216389
0.00368135
0.0053616
0.00119255
0.00143929
0.00508182
0.0036171
-0.000400381
0.00154138
0.00748356
0.00625779
-0.000594088
0.000188314
0.00631334
0.0104276
0.00763909
0.00105803
-0.00166591
-0.000546017
0.0003417
-0.00114318
-0.00190012
0.000413843
0.00414215
0.00788043
0.0115653
0.0107807
0.00301618
-0.00143653
0.000506357
0.00119355
0.0017809
0.00783051
0.0146591
0.0136783
0.00219054
-0.00644564
-0.00568546
-0.00292299
-0.00128109
0.00174555
0.00389359
0.00446393
0.0037725
0.00381646
0.00369267
-0.00230351
-0.00735351
-0.00452391
0.00183376
0.00411386
0.00703248
0.0128297
0.0130747
0.00450644
-0.0142345
-0.0180192
-0.00135118
0.00451949
-0.0026921
-0.00630291
-0.00113067
0.00139924
0.00403433
0.00787834
0.0114072
0.00878544
0.00174914
-0.00316562
-0.00457339
-0.00225432
0.00316267
0.0057513
0.00159859
0.00101431
0.00466937
0.00348276
-0.00165033
-0.000376102
0.00626822
0.00629265
-0.000197009
-0.000232793
0.00546001
0.00963575
0.00703736
0.000283023
-0.00261474
-0.00137281
0.000316884
-0.000163678
-0.00135407
0.0012906
0.00506582
0.00823762
0.0112734
0.0103406
0.00259498
-0.00268301
-0.000614997
0.00065405
0.00136512
0.00690767
0.0130662
0.0129513
0.00248101
-0.00612701
-0.00582303
-0.00334953
-0.00137689
0.00212329
0.00400819
0.0044799
0.00379165
0.0037096
0.0035547
-0.00188195
-0.00651399
-0.00394109
0.00165676
0.00361043
0.00626962
0.0126122
0.0137521
0.00791749
-0.00701992
-0.0148776
-0.00172987
0.00427299
-0.00278246
-0.00633313
-0.000549771
0.00208095
0.00403064
0.00725485
0.0110029
0.00903936
0.00174409
-0.00345842
-0.00426617
-0.0020399
0.00266725
0.00594116
0.00224612
0.000924954
0.00427123
0.00365967
-0.00268155
-0.0024132
0.00469317
0.00607294
0.000255192
-0.00051755
0.00455304
0.00873617
0.00638572
-0.000693114
-0.00376544
-0.00212183
0.000260409
-0.000242328
-0.0012907
0.00176125
0.0057322
0.00854292
0.0111408
0.010117
0.00230008
-0.003785
-0.00148498
0.000662286
0.00130175
0.00576675
0.0111135
0.0120077
0.00284441
-0.00588553
-0.00610135
-0.00381836
-0.00131678
0.00263423
0.00401297
0.00458331
0.00383583
0.00371285
0.00341339
-0.00148329
-0.00567249
-0.00335519
0.00142261
0.00301457
0.00538088
0.0121072
0.0138451
0.0100167
7.6047e-06
-0.00943827
-0.00117766
0.00414009
-0.00232465
-0.0058619
6.05574e-06
0.0026034
0.00380648
0.00662903
0.0104689
0.00934563
0.00182303
-0.00404066
-0.00346362
-0.00163216
0.00227567
0.00591425
0.0029972
0.00120671
0.00391589
0.00406355
-0.0034312
-0.00451227
0.00292835
0.00559249
0.00071838
-0.00065118
0.00367862
0.00773315
0.00566391
-0.00180412
-0.00497573
-0.00293529
-0.000614969
-0.0011329
-0.0016466
0.00191778
0.00612917
0.0087714
0.0111559
0.0101336
0.0021288
-0.00477292
-0.00206325
0.00128535
0.00153445
0.00431203
0.00880066
0.0107254
0.00310313
-0.00586044
-0.00691499
-0.0042465
-0.0011261
0.00319467
0.00422716
0.00442834
0.00383802
0.00373362
0.00318365
-0.00129126
-0.00508048
-0.00286717
0.00113321
0.00238122
0.00445807
0.011339
0.0135449
0.0109009
0.00493085
-0.00343281
0.000209781
0.00395802
-0.00157924
-0.00488179
0.000167251
0.00289292
0.0037196
0.00603502
0.00976205
0.00965393
0.00214181
-0.00472343
-0.00319562
-0.00110744
0.00218114
0.00575471
0.00371444
0.00182996
0.00361681
0.00429246
-0.00386754
-0.00641378
0.00119749
0.00494136
0.00116617
-0.000638805
0.0028755
0.00666546
0.00475394
-0.0030375
-0.00618192
-0.00411624
-0.00227682
-0.00257463
-0.00230794
0.00173639
0.0062272
0.0088764
0.0112541
0.0103789
0.00208954
-0.00557421
-0.00246543
0.00219251
0.00198852
0.00284603
0.00638073
0.00908559
0.00308735
-0.00552488
-0.00696967
-0.00446533
-0.000881358
0.0037349
0.00436388
0.00412089
0.00378767
0.00375644
0.00286054
-0.00136799
-0.00471881
-0.00249693
0.000807379
0.00178611
0.00357678
0.0103465
0.0129041
0.010882
0.00762143
0.00134862
0.00190176
0.00365856
-0.000900186
-0.00372249
0.000460635
0.00312424
0.00372685
0.00547721
0.00882756
0.00974822
0.0027374
-0.00525012
-0.00331439
-0.000518959
0.00251954
0.00567077
0.0044087
0.00269026
0.00332725
0.00446385
-0.0039587
-0.00788041
-0.000297678
0.0042651
0.00160857
-0.000484779
0.00214769
0.00553841
0.00357561
-0.00428659
-0.00745322
-0.00577336
-0.0045543
-0.0043914
-0.00321094
0.00129783
0.00606443
0.0088269
0.0113731
0.0108246
0.00233662
-0.0059912
-0.0027658
0.00290548
0.00241819
0.00181608
0.0045122
0.0075862
0.00304045
-0.00477208
-0.006381
-0.00431461
-0.000628285
0.0042138
0.00464431
0.00387438
0.00384591
0.00377096
0.00250216
-0.00161964
-0.00451994
-0.0022313
0.000553694
0.00157472
0.00280634
0.00919869
0.0120068
0.0103563
0.00851665
0.00430954
0.00327543
0.00323701
-0.000642937
-0.00276122
0.000526101
0.00334344
0.0038093
0.00485164
0.00776854
0.00936848
0.00346521
-0.0052038
-0.00370806
4.85854e-05
0.0032169
0.00585476
0.00517071
0.00313146
0.00293464
0.00438587
-0.00338471
-0.0086067
-0.00130808
0.00369452
0.00204148
-0.000154739
0.00152976
0.00428568
0.00208024
-0.00543828
-0.00856533
-0.00771771
-0.00740458
-0.00659913
-0.00426824
0.000757511
0.00574303
0.00863319
0.0114486
0.011392
0.00303338
-0.00587692
-0.00297068
0.0030492
0.00255134
0.00135521
0.00362659
0.00674207
0.00306987
-0.00373539
-0.00540305
-0.0037611
-0.000350579
0.00457504
0.00515844
0.00374229
0.00368313
0.00373214
0.00213644
-0.00190703
-0.00438156
-0.00205127
0.000639193
0.00156503
0.00221285
0.00790287
0.0108629
0.00954342
0.00807566
0.0056904
0.00409548
0.00289759
-0.000431371
-0.00209009
0.000527913
0.00331986
0.00386305
0.00424568
0.00684719
0.00843172
0.00410668
-0.00433326
-0.00416244
0.00077301
0.00407157
0.00637424
0.00610722
0.00328963
0.00241241
0.00403704
-0.00219148
-0.00684807
-0.00147615
0.00346662
0.00253366
0.000382351
0.00114048
0.00293183
0.000285268
-0.00625507
-0.00897348
-0.0102094
-0.010665
-0.00898519
-0.00528198
0.00027423
0.00542286
0.00836568
0.0114279
0.0119851
0.00419015
-0.00525913
-0.00321131
0.00277279
0.00240907
0.00128068
0.00366968
0.00627795
0.00291445
-0.0028479
-0.00445439
-0.00313123
-0.000179863
0.00478341
0.00584252
0.00374024
0.00332258
0.0035831
0.00175157
-0.00210437
-0.00421953
-0.00190368
0.000855878
0.00177016
0.00187965
0.00635169
0.00939291
0.00858314
0.00713289
0.00591518
0.00441629
0.00268987
-0.000247154
-0.001895
0.000339187
0.00306441
0.00385928
0.00392345
0.00613673
0.00706022
0.00453512
-0.0031406
-0.00448037
0.0012946
0.0048396
0.00712016
0.00719424
0.00300636
0.00184184
0.00346026
-0.000769277
-0.00523138
-0.000915728
0.00369365
0.00322481
0.0011522
0.00104829
0.00148814
-0.00168671
-0.00658523
-0.00849807
-0.0122989
-0.0137912
-0.0111503
-0.00603735
-2.95019e-05
0.00530134
0.0081618
0.0112864
0.0124415
0.00555259
-0.00423527
-0.00331158
0.00226849
0.00216066
0.00142602
0.00381547
0.00541817
0.00228135
-0.00231424
-0.00370747
-0.00266278
-7.96065e-05
0.00486074
0.00662798
0.00401561
0.00284602
0.00326401
0.00114852
-0.00190078
-0.0040265
-0.00172587
0.00110126
0.00207905
0.00187111
0.00486826
0.00771134
0.00752221
0.00633043
0.00534439
0.00429749
0.00250742
-0.000127912
-0.00169424
9.70645e-05
0.00283514
0.00384185
0.00364146
0.00461143
0.00540695
0.00465788
-0.00182889
-0.00389212
0.00116244
0.0051739
0.00795174
0.00835649
0.00322373
0.00119705
0.00268393
0.000628806
-0.0038229
-0.000621856
0.00385954
0.00405021
0.00231921
0.00130609
-5.28188e-05
-0.00340195
-0.0062284
-0.00789205
-0.0135932
-0.0161184
-0.0127956
-0.0064308
-5.77868e-05
0.00552333
0.00817856
0.0110851
0.0125974
0.00681068
-0.00294165
-0.00314483
0.001562
0.00189995
0.0017254
0.00381801
0.00410219
0.00114361
-0.00206365
-0.00309738
-0.00229705
-2.31293e-05
0.00487641
0.00744118
0.00464221
0.00245457
0.00279664
0.000947095
-0.0018006
-0.0038149
-0.00149972
0.00139967
0.00244955
0.00164287
0.00369227
0.00575757
0.00657468
0.0052925
0.00429185
0.0037069
0.002216
-1.6322e-05
-0.00138108
-5.20973e-05
0.00272889
0.00391543
0.00368297
0.00246936
0.00379327
0.00454274
-0.000617605
-0.00322234
0.00103232
0.00496976
0.00856524
0.00963009
0.00390024
0.000437105
0.00157717
0.00226128
-0.00192182
-0.000840884
0.00361699
0.00469814
0.0037384
0.00185016
-0.00104351
-0.00426751
-0.0053923
-0.00722182
-0.0135026
-0.0170446
-0.0136479
-0.00641899
0.000265252
0.00616655
0.00847359
0.0109097
0.0124802
0.00779051
-0.00159031
-0.00315652
0.000744377
0.00158758
0.00195669
0.00364433
0.00300322
0.000335975
-0.00184152
-0.00247944
-0.00189441
-0.000102215
0.00485626
0.00819347
0.00557295
0.00239571
0.00224175
0.000862972
-0.00181687
-0.00354199
-0.00132197
0.00175279
0.00286885
0.00181975
0.00304015
0.00505322
0.00621452
0.00456445
0.00330167
0.00280454
0.0018355
0.00010518
-0.00098256
-5.55339e-05
0.00260505
0.00425212
0.00421011
0.00195802
0.00287161
0.00444609
0.000204546
-0.00255482
0.000762352
0.00443468
0.00851453
0.0106443
0.00504477
-0.000106602
0.000271681
0.00315803
0.000657568
-0.000691668
0.0025997
0.00496543
0.00508042
0.00261179
-0.00123414
-0.00418582
-0.00464406
-0.00654585
-0.0127625
-0.0163753
-0.0134016
-0.00598075
0.000705228
0.00712405
0.00903685
0.0107624
0.0122256
0.00854493
-0.000370188
-0.00324064
-4.32428e-05
0.00122946
0.00202665
0.00347886
0.00246934
0.00016518
-0.00143469
-0.00190785
-0.00149624
-7.5755e-05
0.00477184
0.00872715
0.00662165
0.00270711
0.00184238
0.000778811
-0.00189614
-0.00338384
-0.00123291
0.00210832
0.00332294
0.00227493
0.00288862
0.00463672
0.00649245
0.0046711
0.00252106
0.00180806
0.00140904
0.000240696
-0.000596692
0.000131712
0.00243845
0.00459713
0.00496542
0.00267002
0.00290839
0.00451332
0.00067011
-0.00215074
0.000400932
0.00387266
0.00773879
0.0106324
0.00595891
-0.00062146
-0.0011817
0.00270171
0.00319594
0.000261295
0.00146139
0.00489569
0.00623332
0.00371594
-0.000627922
-0.00356598
-0.00393477
-0.00607034
-0.0116184
-0.014824
-0.0120157
-0.00522089
0.00107146
0.00722819
0.00978077
0.0107572
0.0118796
0.00902793
0.000693792
-0.00317641
-0.000423668
0.000949444
0.00195357
0.00341785
0.00236008
0.000444488