/*--------------------------------*- C++ -*----------------------------------*\
  =========                 |
  \\      /  F ield         | OpenFOAM: The Open Source CFD Toolbox
   \\    /   O peration     | Website:  https://openfoam.org
    \\  /    A nd           | Version:  8
     \\/     M anipulation  |
\*---------------------------------------------------------------------------*/
FoamFile
{
    version     2.0;
    format      ascii;
    class       volScalarField;
    location    "1";
    object      p;
}
// * * * * * * * * * * * * * * * * * * * * * * * * * * * * * * * * * * * * * //

dimensions      [0 2 -2 0 0 0 0];

internalField   nonuniform List<scalar> 
400
(
-0.099166
-0.19814
-0.251279
-0.276652
-0.280283
-0.268065
-0.243124
-0.206045
-0.159473
-0.1064
-0.0490582
0.0103678
0.0691121
0.124032
0.172255
0.211732
0.241469
0.261453
0.272464
0.276125
-0.198528
-0.238997
-0.268521
-0.283667
-0.282649
-0.267793
-0.24145
-0.204311
-0.158564
-0.106566
-0.0501331
0.00871058
0.0671848
0.122015
0.170133
0.209319
0.238503
0.257612
0.26701
0.266658
-0.250217
-0.268423
-0.280226
-0.284626
-0.277295
-0.259945
-0.233873
-0.198776
-0.156198
-0.107918
-0.0550848
0.000841917
0.0572768
0.110717
0.157615
0.195322
0.222656
0.239761
0.247202
0.245449
-0.273219
-0.280717
-0.28072
-0.276524
-0.263897
-0.244768
-0.220019
-0.188522
-0.151193
-0.109196
-0.062768
-0.0124285
0.0397344
0.0900839
0.13452
0.169833
0.194589
0.209054
0.214141
0.210887
-0.278042
-0.279073
-0.271624
-0.261031
-0.244071
-0.223521
-0.200435
-0.173114
-0.141991
-0.107909
-0.0703143
-0.0285524
0.0162081
0.060584
0.100196
0.131447
0.152669
0.164041
0.166774
0.162303
-0.270353
-0.267646
-0.255737
-0.241056
-0.221118
-0.199741
-0.178641
-0.155751
-0.131
-0.105433
-0.0782968
-0.0478155
-0.0137498
0.0214618
0.0537376
0.0793855
0.0964626
0.104758
0.105728
0.100982
-0.255778
-0.251841
-0.238271
-0.222226
-0.201256
-0.179967
-0.161175
-0.142763
-0.123668
-0.105588
-0.0887124
-0.0708057
-0.0499536
-0.0267718
-0.00410775
0.0148137
0.0277782
0.0337705
0.0341872
0.0304669
-0.239646
-0.236804
-0.224511
-0.210299
-0.190991
-0.171267
-0.155318
-0.141929
-0.127876
-0.115197
-0.106353
-0.100061
-0.0930438
-0.0833549
-0.0715009
-0.0594508
-0.049591
-0.0442574
-0.042792
-0.0445438
-0.224387
-0.224901
-0.216894
-0.208218
-0.194448
-0.179107
-0.167158
-0.160715
-0.152938
-0.144315
-0.14018
-0.142113
-0.146721
-0.149424
-0.147526
-0.140893
-0.131862
-0.124656
-0.120478
-0.120466
-0.208231
-0.21379
-0.212752
-0.21343
-0.21032
-0.204538
-0.198664
-0.202466
-0.20535
-0.202754
-0.201485
-0.207392
-0.218984
-0.23011
-0.234804
-0.230248
-0.218386
-0.205805
-0.197096
-0.196677
-0.185038
-0.196182
-0.204642
-0.21841
-0.231729
-0.2441
-0.248071
-0.265434
-0.285304
-0.294966
-0.298894
-0.306615
-0.3203
-0.334246
-0.340332
-0.333097
-0.313641
-0.290964
-0.274629
-0.274422
-0.145642
-0.162228
-0.184316
-0.216128
-0.250945
-0.293052
-0.314397
-0.347581
-0.388518
-0.417543
-0.432696
-0.444013
-0.457257
-0.469128
-0.471482
-0.457058
-0.425275
-0.386482
-0.355963
-0.351933
-0.0812105
-0.104248
-0.148028
-0.207318
-0.266831
-0.347344
-0.398153
-0.450594
-0.511834
-0.562506
-0.593947
-0.612551
-0.625109
-0.6316
-0.626672
-0.603041
-0.556617
-0.495532
-0.438947
-0.418572
0.0130321
-0.0208921
-0.0964919
-0.197908
-0.285965
-0.398569
-0.487263
-0.56731
-0.649462
-0.721229
-0.771578
-0.799306
-0.807283
-0.801265
-0.784198
-0.751789
-0.693392
-0.607611
-0.51005
-0.452698
0.138479
0.0836287
-0.0259085
-0.17493
-0.303424
-0.425921
-0.541586
-0.658062
-0.774316
-0.877867
-0.95737
-0.999768
-0.983607
-0.941363
-0.896537
-0.852175
-0.788272
-0.684815
-0.53958
-0.425672
0.302301
0.20925
0.0779749
-0.0842348
-0.265859
-0.397347
-0.527626
-0.689816
-0.875321
-1.0521
-1.18703
-1.24025
-1.18284
-1.0516
-0.917834
-0.82634
-0.753632
-0.651825
-0.480331
-0.309979
0.525166
0.382695
0.239239
0.116703
-0.0926284
-0.292211
-0.515428
-0.782859
-1.07166
-1.33359
-1.51617
-1.57686
-1.49649
-1.26382
-0.954809
-0.668869
-0.483179
-0.390151
-0.265318
-0.0888194
0.837341
0.690122
0.543495
0.366781
0.075249
-0.269888
-0.66526
-1.06745
-1.41605
-1.67874
-1.84473
-1.90856
-1.85967
-1.66493
-1.27412
-0.695388
-0.132104
0.200138
0.247589
0.314983
1.45442
1.25538
0.951647
0.481957
-0.106478
-0.645436
-1.08634
-1.44576
-1.73068
-1.94182
-2.08101
-2.14809
-2.13359
-2.00922
-1.7198
-1.17919
-0.310825
0.604547
1.10266
1.19926
2.09974
1.62289
0.830198
-0.00148791
-0.584931
-1.00267
-1.34172
-1.6276
-1.86056
-2.03844
-2.1611
-2.22726
-2.22841
-2.14413
-1.94141
-1.57517
-0.944534
0.126407
1.46155
2.18932
)
;

boundaryField
{
    movingWall
    {
        type            zeroGradient;
    }
    fixedWalls
    {
        type            zeroGradient;
    }
    frontAndBack
    {
        type            empty;
    }
}


// ************************************************************************* //
