/*--------------------------------*- C++ -*----------------------------------*\
  =========                 |
  \\      /  F ield         | OpenFOAM: The Open Source CFD Toolbox
   \\    /   O peration     | Website:  https://openfoam.org
    \\  /    A nd           | Version:  8
     \\/     M anipulation  |
\*---------------------------------------------------------------------------*/
FoamFile
{
    version     2.0;
    format      ascii;
    class       surfaceScalarField;
    location    "1";
    object      phi;
}
// * * * * * * * * * * * * * * * * * * * * * * * * * * * * * * * * * * * * * //

dimensions      [0 3 -1 0 0 0 0];

internalField   nonuniform List<scalar> 
760
(
6.39679e-08
-6.41754e-08
-1.33888e-07
1.97857e-07
-6.01335e-07
4.6745e-07
-1.24961e-06
6.48275e-07
-1.98595e-06
7.36342e-07
-2.72932e-06
7.43361e-07
-3.4108e-06
6.81486e-07
-3.97104e-06
5.60237e-07
-4.35835e-06
3.87311e-07
-4.52998e-06
1.71633e-07
-4.45671e-06
-7.32675e-08
-4.12985e-06
-3.26868e-07
-3.56852e-06
-5.61328e-07
-2.82489e-06
-7.43621e-07
-1.98441e-06
-8.40484e-07
-1.15877e-06
-8.25636e-07
-4.70558e-07
-6.88218e-07
-2.98298e-08
-4.40728e-07
1.02185e-07
-1.32013e-07
1.02187e-07
-1.96256e-07
1.32071e-07
-9.66001e-07
9.6761e-07
-2.25642e-06
1.75788e-06
-3.90548e-06
2.29733e-06
-5.72715e-06
2.55802e-06
-7.54273e-06
2.55894e-06
-9.19076e-06
2.32952e-06
-1.05291e-05
1.89859e-06
-1.14366e-05
1.2948e-06
-1.18183e-05
5.53297e-07
-1.16153e-05
-2.76195e-07
-1.08181e-05
-1.12409e-06
-9.47859e-06
-1.90086e-06
-7.71786e-06
-2.50435e-06
-5.72374e-06
-2.83461e-06
-3.73391e-06
-2.81546e-06
-2.00235e-06
-2.41978e-06
-7.50072e-07
-1.69301e-06
-1.03258e-07
-7.78832e-07
-1.06878e-09
-5.06065e-07
6.38142e-07
-1.89207e-06
2.35362e-06
-3.9666e-06
3.8324e-06
-6.48926e-06
4.81999e-06
-9.20731e-06
5.27607e-06
-1.18787e-05
5.23028e-06
-1.42819e-05
4.73281e-06
-1.62209e-05
3.83759e-06
-1.75289e-05
2.6028e-06
-1.80771e-05
1.10142e-06
-1.77871e-05
-5.66125e-07
-1.66475e-05
-2.26371e-06
-1.47282e-05
-3.82016e-06
-1.21902e-05
-5.04231e-06
-9.28322e-06
-5.74162e-06
-6.32531e-06
-5.77338e-06
-3.66221e-06
-5.08287e-06
-1.6073e-06
-3.74793e-06
-3.71285e-07
-2.01485e-06
-3.72353e-07
-7.89313e-07
1.42746e-06
-2.76803e-06
4.33234e-06
-5.5867e-06
6.65107e-06
-8.91116e-06
8.14446e-06
-1.24261e-05
8.79101e-06
-1.58418e-05
8.64593e-06
-1.88967e-05
7.78779e-06
-2.13597e-05
6.30056e-06
-2.30334e-05
4.27648e-06
-2.37634e-05
1.83137e-06
-2.3452e-05
-8.77513e-07
-2.20762e-05
-3.63946e-06
-1.97061e-05
-6.19029e-06
-1.65185e-05
-8.22986e-06
-1.28004e-05
-9.45975e-06
-8.93245e-06
-9.64135e-06
-5.3482e-06
-8.66712e-06
-2.46887e-06
-6.62725e-06
-6.26122e-07
-3.85759e-06
-9.98474e-07
-1.04166e-06
2.46912e-06
-3.56929e-06
6.85997e-06
-7.08195e-06
1.01637e-05
-1.11487e-05
1.22112e-05
-1.53942e-05
1.30365e-05
-1.94901e-05
1.27419e-05
-2.31478e-05
1.14456e-05
-2.61136e-05
9.26632e-06
-2.81685e-05
6.33141e-06
-2.91355e-05
2.7983e-06
-2.88922e-05
-1.12074e-06
-2.73911e-05
-5.14061e-06
-2.46818e-05
-8.89961e-06
-2.09342e-05
-1.19774e-05
-1.64529e-05
-1.39411e-05
-1.16726e-05
-1.44216e-05
-7.1236e-06
-1.32161e-05
-3.36216e-06
-1.03887e-05
-8.76934e-07
-6.34282e-06
-1.87541e-06
-1.26659e-06
3.7357e-06
-4.29357e-06
9.88696e-06
-8.44265e-06
1.43128e-05
-1.31912e-05
1.69597e-05
-1.81091e-05
1.79544e-05
-2.28378e-05
1.74706e-05
-2.70719e-05
1.56796e-05
-3.05448e-05
1.27393e-05
-3.30231e-05
8.80971e-06
-3.43079e-05
4.08309e-06
-3.4246e-05
-1.18269e-06
-3.27498e-05
-6.63674e-06
-2.98269e-05
-1.18225e-05
-2.56142e-05
-1.61902e-05
-2.04109e-05
-1.91443e-05
-1.46949e-05
-2.01377e-05
-9.10259e-06
-1.88084e-05
-4.35792e-06
-1.51334e-05
-1.15164e-06
-9.54909e-06
-3.02705e-06
-1.46644e-06
5.20214e-06
-4.94015e-06
1.33607e-05
-9.65968e-06
1.90323e-05
-1.50191e-05
2.23192e-05
-2.05416e-05
2.34768e-05
-2.58479e-05
2.27769e-05
-3.06264e-05
2.04582e-05
-3.46089e-05
1.67218e-05
-3.75551e-05
1.17558e-05
-3.92473e-05
5.77529e-06
-3.94969e-05
-9.33093e-07
-3.81633e-05
-7.97027e-06
-3.51885e-05
-1.47973e-05
-3.06455e-05
-2.07332e-05
-2.47954e-05
-2.49944e-05
-1.81355e-05
-2.67976e-05
-1.14087e-05
-2.55352e-05
-5.53977e-06
-2.10023e-05
-1.48258e-06
-1.36063e-05
-4.50962e-06
-1.64186e-06
6.84401e-06
-5.50605e-06
1.72249e-05
-1.07185e-05
2.42448e-05
-1.65983e-05
2.81989e-05
-2.2631e-05
2.95096e-05
-2.84288e-05
2.85748e-05
-3.36876e-05
2.57169e-05
-3.81507e-05
2.11849e-05
-4.15833e-05
1.51885e-05
-4.37575e-05
7.94951e-06
-4.4451e-05
-2.39596e-07
-4.34621e-05
-8.95922e-06
-4.0646e-05
-1.76134e-05
-3.59763e-05
-2.54029e-05
-2.96296e-05
-3.13411e-05
-2.20778e-05
-3.43494e-05
-1.4148e-05
-3.3465e-05
-6.9913e-06
-2.8159e-05
-1.90377e-06
-1.86938e-05
-6.41339e-06
-1.79365e-06
8.63766e-06
-5.98924e-06
2.14205e-05
-1.16031e-05
2.98587e-05
-1.7884e-05
3.44798e-05
-2.42905e-05
3.59161e-05
-3.04406e-05
3.47248e-05
-3.60547e-05
3.1331e-05
-4.09067e-05
2.6037e-05
-4.47857e-05
1.90674e-05
-4.74698e-05
1.06337e-05
-4.8715e-05
1.0056e-06
-4.82609e-05
-9.41339e-06
-4.58625e-05
-2.00118e-05
-4.13587e-05
-2.99067e-05
-3.47823e-05
-3.79175e-05
-2.65058e-05
-4.26259e-05
-1.73816e-05
-4.25892e-05
-8.78685e-06
-3.67537e-05
-2.45085e-06
-2.50298e-05
-8.86424e-06
-1.92707e-06
1.05647e-05
-6.39806e-06
2.58915e-05
-1.23081e-05
3.57687e-05
-1.88345e-05
4.10062e-05
-2.54201e-05
4.25017e-05
-3.17073e-05
4.1012e-05
-3.74637e-05
3.70874e-05
-4.25175e-05
3.10907e-05
-4.67071e-05
2.3257e-05
-4.98435e-05
1.37701e-05
-5.16856e-05
2.84763e-06
-5.1932e-05
-9.16692e-06
-5.02405e-05
-2.17033e-05
-4.62889e-05
-3.38582e-05
-3.99011e-05
-4.43053e-05
-3.12468e-05
-5.12801e-05
-2.10908e-05
-5.27453e-05
-1.09811e-05
-4.68634e-05
-3.16251e-06
-3.28484e-05
-1.20268e-05
-2.05912e-06
1.26238e-05
-6.76638e-06
3.05987e-05
-1.28577e-05
4.186e-05
-1.943e-05
4.75785e-05
-2.59255e-05
4.89973e-05
-3.2037e-05
4.71235e-05
-3.76077e-05
4.26581e-05
-4.25504e-05
3.60334e-05
-4.67847e-05
2.74913e-05
-5.01892e-05
1.71746e-05
-5.25639e-05
5.22231e-06
-5.36043e-05
-8.12644e-06
-5.28969e-05
-2.24108e-05
-4.99565e-05
-3.67987e-05
-4.43432e-05
-4.99186e-05
-3.59004e-05
-5.9723e-05
-2.51267e-05
-6.35189e-05
-1.35916e-05
-5.83985e-05
-4.08264e-06
-4.23574e-05
-1.61094e-05
-2.23011e-06
1.4854e-05
-7.17458e-06
3.55432e-05
-1.33271e-05
4.80125e-05
-1.96901e-05
5.39415e-05
-2.57323e-05
5.50395e-05
-3.12357e-05
5.26269e-05
-3.61573e-05
4.75797e-05
-4.05289e-05
4.0405e-05
-4.43861e-05
3.13486e-05
-4.77149e-05
2.05033e-05
-5.04042e-05
7.91159e-06
-5.22022e-05
-6.32847e-06
-5.26802e-05
-2.19327e-05
-5.12265e-05
-3.82523e-05
-4.71192e-05
-5.40259e-05
-3.97575e-05
-6.70847e-05
-2.91384e-05
-7.4138e-05
-1.6567e-05
-7.09699e-05
-5.26222e-06
-5.36622e-05
-2.13716e-05
-2.52231e-06
1.73763e-05
-7.77518e-06
4.07961e-05
-1.3858e-05
5.40954e-05
-1.96737e-05
5.97572e-05
-2.47747e-05
6.01404e-05
-2.90946e-05
5.69469e-05
-3.27542e-05
5.12392e-05
-3.59418e-05
4.35926e-05
-3.88415e-05
3.42483e-05
-4.15819e-05
2.32437e-05
-4.41884e-05
1.05181e-05
-4.65274e-05
-3.98938e-06
-4.82394e-05
-2.02208e-05
-4.86723e-05
-3.78194e-05
-4.687e-05
-5.58282e-05
-4.17247e-05
-7.22301e-05
-3.2478e-05
-8.33847e-05
-1.97291e-05
-8.37188e-05
-6.75765e-06
-6.66336e-05
-2.81293e-05
-3.08993e-06
2.04662e-05
-8.81524e-06
4.65214e-05
-1.46417e-05
5.99218e-05
-1.94212e-05
6.45367e-05
-2.29116e-05
6.36309e-05
-2.52989e-05
5.93341e-05
-2.69307e-05
5.2871e-05
-2.81879e-05
4.48499e-05
-2.94234e-05
3.54838e-05
-3.09274e-05
2.47477e-05
-3.28929e-05
1.24836e-05
-3.53623e-05
-1.52005e-06
-3.81404e-05
-1.74427e-05
-4.06691e-05
-3.52907e-05
-4.1898e-05
-5.45992e-05
-4.02674e-05
-7.38607e-05
-3.40796e-05
-8.95725e-05
-2.26694e-05
-9.5129e-05
-8.61323e-06
-8.06898e-05
-3.67425e-05
-4.20016e-06
2.46663e-05
-1.06208e-05
5.2942e-05
-1.57951e-05
6.50962e-05
-1.87429e-05
6.74845e-05
-1.96705e-05
6.45585e-05
-1.91643e-05
5.88278e-05
-1.78685e-05
5.15753e-05
-1.63763e-05
4.33577e-05
-1.52032e-05
3.43107e-05
-1.47872e-05
2.43317e-05
-1.54844e-05
1.31808e-05
-1.75363e-05
5.31894e-07
-2.09884e-05
-1.39907e-05
-2.55311e-05
-3.0748e-05
-3.02536e-05
-4.98767e-05
-3.33817e-05
-7.07326e-05
-3.23019e-05
-9.06523e-05
-2.45533e-05
-0.000102878
-1.07869e-05
-9.44562e-05
-4.75294e-05
-6.24639e-06
3.09127e-05
-1.34046e-05
6.01002e-05
-1.69231e-05
6.86147e-05
-1.66369e-05
6.71982e-05
-1.36269e-05
6.15485e-05
-9.05099e-06
5.42519e-05
-3.88363e-06
4.64079e-05
1.10181e-06
3.83722e-05
5.28586e-06
3.01267e-05
8.14675e-06
2.14708e-05
9.22382e-06
1.21038e-05
8.11134e-06
1.64438e-06
4.50766e-06
-1.0387e-05
-1.6462e-06
-2.45941e-05
-9.86097e-06
-4.1662e-05
-1.85921e-05
-6.20015e-05
-2.47097e-05
-8.45347e-05
-2.3748e-05
-0.000103839
-1.29132e-05
-0.000105291
-6.04426e-05
-9.56086e-06
4.04736e-05
-1.64257e-05
6.6965e-05
-1.58204e-05
6.80095e-05
-9.88864e-06
6.12664e-05
-1.12531e-06
5.27852e-05
8.70412e-06
4.44225e-05
1.84196e-05
3.66924e-05
2.72242e-05
2.95676e-05
3.4541e-05
2.28098e-05
3.98953e-05
1.61165e-05
4.2837e-05
9.16209e-06
4.28978e-05
1.58351e-06
3.959e-05
-7.07915e-06
3.24691e-05
-1.74732e-05
2.13787e-05
-3.05716e-05
7.0528e-06
-4.76755e-05
-7.76919e-06
-6.97127e-05
-1.72125e-05
-9.43959e-05
-1.37623e-05
-0.000108741
-7.42049e-05
-1.34298e-05
5.39034e-05
-1.50797e-05
6.86149e-05
-5.09635e-06
5.80261e-05
9.81205e-06
4.6358e-05
2.58427e-05
3.67546e-05
4.12116e-05
2.90536e-05
5.50387e-05
2.28653e-05
6.68601e-05
1.77463e-05
7.63873e-05
1.32826e-05
8.3369e-05
9.13479e-06
8.75109e-05
5.02021e-06
8.84209e-05
6.73554e-07
8.55735e-05
-4.23177e-06
7.82627e-05
-1.01624e-05
6.56598e-05
-1.79687e-05
4.7185e-05
-2.92007e-05
2.37922e-05
-4.63199e-05
7.10234e-07
-7.1314e-05
-1.02171e-05
-9.78139e-05
-8.4422e-05
-9.40841e-06
6.33118e-05
8.82305e-06
5.03835e-05
3.51822e-05
3.16669e-05
6.00372e-05
2.15031e-05
8.14843e-05
1.53075e-05
9.94528e-05
1.10851e-05
0.000114201
8.11674e-06
0.000126014
5.93391e-06
0.000135094
4.20187e-06
0.000141528
2.70124e-06
0.000145264
1.28465e-06
0.000146094
-1.5727e-07
0.000143629
-1.76687e-06
0.000137167
-3.70031e-06
0.000125537
-6.33808e-06
0.000106888
-1.05521e-05
7.9072e-05
-1.85038e-05
4.22898e-05
-3.45318e-05
6.89676e-06
-6.24208e-05
-7.75252e-05
6.33118e-05
0.000113695
0.000145362
0.000166865
0.000182173
0.000193258
0.000201375
0.000207308
0.00021151
0.000214212
0.000215496
0.000215339
0.000213572
0.000209872
0.000203534
0.000192982
0.000174478
0.000139946
7.75252e-05
)
;

boundaryField
{
    movingWall
    {
        type            calculated;
        value           uniform 0;
    }
    fixedWalls
    {
        type            calculated;
        value           uniform 0;
    }
    frontAndBack
    {
        type            empty;
        value           nonuniform List<scalar> 0();
    }
}


// ************************************************************************* //
