/*--------------------------------*- C++ -*----------------------------------*\
  =========                 |
  \\      /  F ield         | OpenFOAM: The Open Source CFD Toolbox
   \\    /   O peration     | Website:  https://openfoam.org
    \\  /    A nd           | Version:  8
     \\/     M anipulation  |
\*---------------------------------------------------------------------------*/
FoamFile
{
    version     2.0;
    format      ascii;
    class       volVectorField;
    location    "1";
    object      U;
}
// * * * * * * * * * * * * * * * * * * * * * * * * * * * * * * * * * * * * * //

dimensions      [0 1 -1 0 0 0 0];

internalField   nonuniform List<vector> 
400
(
(0.00120359 -0.00120822 0)
(0.000401066 0.000672833 0)
(-0.00645134 0.00286744 0)
(-0.0179685 0.0043406 0)
(-0.0321746 0.00506941 0)
(-0.0472973 0.00518564 0)
(-0.0618315 0.00480616 0)
(-0.0744952 0.00400756 0)
(-0.0841746 0.00283754 0)
(-0.0899121 0.00134568 0)
(-0.0909654 -0.000383525 0)
(-0.0869288 -0.00220717 0)
(-0.0778854 -0.00391657 0)
(-0.0645412 -0.00525299 0)
(-0.0482893 -0.00594628 0)
(-0.0311499 -0.00577355 0)
(-0.0155469 -0.00462897 0)
(-0.00390952 -0.00259448 0)
(0.00189191 -8.67095e-05 0)
(0.00157721 0.00152446 0)
(-0.000623367 -0.000512713 0)
(-0.00896403 0.00883928 0)
(-0.0300564 0.018403 0)
(-0.0603851 0.0249853 0)
(-0.0959806 0.0282388 0)
(-0.133169 0.0284695 0)
(-0.168537 0.0260739 0)
(-0.199034 0.0213982 0)
(-0.222006 0.0147509 0)
(-0.235256 0.00649953 0)
(-0.237195 -0.00281655 0)
(-0.227083 -0.0124095 0)
(-0.205299 -0.0212352 0)
(-0.173564 -0.0280773 0)
(-0.135014 -0.0317283 0)
(-0.0940192 -0.0312544 0)
(-0.0556694 -0.0263052 0)
(-0.0249207 -0.0174129 0)
(-0.00570001 -0.00641524 0)
(0.000312517 0.00208291 0)
(-0.0030755 0.00649708 0)
(-0.0201056 0.0303308 0)
(-0.0555784 0.0520751 0)
(-0.10299 0.0669011 0)
(-0.156658 0.0739956 0)
(-0.211697 0.0737869 0)
(-0.263481 0.0670341 0)
(-0.3078 0.054532 0)
(-0.340991 0.0371106 0)
(-0.360049 0.0158043 0)
(-0.362837 -0.00794523 0)
(-0.348387 -0.0321538 0)
(-0.317227 -0.054305 0)
(-0.271654 -0.0715509 0)
(-0.215826 -0.0811218 0)
(-0.155565 -0.0809201 0)
(-0.0977082 -0.070214 0)
(-0.0490447 -0.0502789 0)
(-0.0155793 -0.0250313 0)
(-0.00167173 -0.00260527 0)
(-0.00527203 0.0195499 0)
(-0.0305687 0.0642344 0)
(-0.0798761 0.101425 0)
(-0.143251 0.125951 0)
(-0.21321 0.137017 0)
(-0.283893 0.135371 0)
(-0.349839 0.122251 0)
(-0.40609 0.0990077 0)
(-0.448322 0.0671293 0)
(-0.472966 0.028492 0)
(-0.477429 -0.0143414 0)
(-0.460423 -0.0579257 0)
(-0.422346 -0.0979518 0)
(-0.365628 -0.129562 0)
(-0.294939 -0.148 0)
(-0.217091 -0.149582 0)
(-0.140414 -0.132845 0)
(-0.0736182 -0.0996026 0)
(-0.0253393 -0.0557544 0)
(-0.0034609 -0.0125727 0)
(-0.00717299 0.037968 0)
(-0.0400212 0.109531 0)
(-0.102245 0.165035 0)
(-0.18048 0.2002 0)
(-0.265433 0.214969 0)
(-0.350394 0.210801 0)
(-0.429305 0.1896 0)
(-0.496727 0.153369 0)
(-0.54791 0.104305 0)
(-0.578849 0.0451582 0)
(-0.586477 -0.0203522 0)
(-0.569001 -0.0872512 0)
(-0.526339 -0.149292 0)
(-0.460601 -0.199332 0)
(-0.376505 -0.230189 0)
(-0.281541 -0.235994 0)
(-0.185509 -0.21389 0)
(-0.0994113 -0.165646 0)
(-0.0352321 -0.0987655 0)
(-0.00511001 -0.0275235 0)
(-0.00883609 0.0611584 0)
(-0.0484965 0.165318 0)
(-0.122544 0.241952 0)
(-0.214427 0.28867 0)
(-0.313152 0.306901 0)
(-0.411285 0.299285 0)
(-0.502366 0.268645 0)
(-0.580692 0.217726 0)
(-0.641269 0.14942 0)
(-0.679745 0.0672662 0)
(-0.69253 -0.0239734 0)
(-0.677109 -0.117881 0)
(-0.63254 -0.206249 0)
(-0.56011 -0.279414 0)
(-0.464063 -0.327234 0)
(-0.352178 -0.340811 0)
(-0.235676 -0.31485 0)
(-0.128275 -0.250115 0)
(-0.0462048 -0.155192 0)
(-0.00687302 -0.0476248 0)
(-0.0103015 0.0885975 0)
(-0.0560391 0.230588 0)
(-0.140687 0.330991 0)
(-0.244802 0.390145 0)
(-0.355868 0.411694 0)
(-0.46589 0.399966 0)
(-0.568213 0.358983 0)
(-0.657102 0.292319 0)
(-0.727511 0.203483 0)
(-0.774865 0.0966135 0)
(-0.795046 -0.0227479 0)
(-0.784645 -0.146997 0)
(-0.741491 -0.2661 0)
(-0.66549 -0.367739 0)
(-0.559737 -0.438246 0)
(-0.431679 -0.464609 0)
(-0.293648 -0.437613 0)
(-0.162369 -0.355517 0)
(-0.0594118 -0.227124 0)
(-0.00904787 -0.0736641 0)
(-0.0115888 0.11979 0)
(-0.0626581 0.304251 0)
(-0.156537 0.430727 0)
(-0.271154 0.503041 0)
(-0.392659 0.527787 0)
(-0.512704 0.511519 0)
(-0.624699 0.459765 0)
(-0.723152 0.377004 0)
(-0.803241 0.267248 0)
(-0.860379 0.134949 0)
(-0.890037 -0.0139759 0)
(-0.887863 -0.171185 0)
(-0.850178 -0.32518 0)
(-0.774939 -0.461063 0)
(-0.663246 -0.56118 0)
(-0.521225 -0.607193 0)
(-0.361517 -0.583986 0)
(-0.203766 -0.485021 0)
(-0.0760812 -0.317688 0)
(-0.0119628 -0.107105 0)
(-0.0127184 0.154245 0)
(-0.0683812 0.385142 0)
(-0.169978 0.539472 0)
(-0.292943 0.625296 0)
(-0.422267 0.652939 0)
(-0.5495 0.631788 0)
(-0.668437 0.569219 0)
(-0.774202 0.470714 0)
(-0.862567 0.340649 0)
(-0.929297 0.183444 0)
(-0.969751 0.00486851 0)
(-0.978801 -0.186647 0)
(-0.951178 -0.378797 0)
(-0.882429 -0.554539 0)
(-0.770707 -0.692104 0)
(-0.619413 -0.7667 0)
(-0.439979 -0.754903 0)
(-0.254112 -0.642001 0)
(-0.0974735 -0.430953 0)
(-0.016 -0.150118 0)
(-0.0137581 0.191517 0)
(-0.0733988 0.472075 0)
(-0.181136 0.655254 0)
(-0.309807 0.754196 0)
(-0.443372 0.783912 0)
(-0.573593 0.757332 0)
(-0.695079 0.684093 0)
(-0.804033 0.570808 0)
(-0.897323 0.422094 0)
(-0.971591 0.241983 0)
(-1.02261 0.0354963 0)
(-1.04493 -0.18967 0)
(-1.03195 -0.421385 0)
(-0.976629 -0.641418 0)
(-0.873305 -0.824376 0)
(-0.720935 -0.938371 0)
(-0.527345 -0.949127 0)
(-0.314188 -0.829123 0)
(-0.124868 -0.571617 0)
(-0.0216471 -0.205621 0)
(-0.0149034 0.23135 0)
(-0.0783029 0.564028 0)
(-0.190733 0.775852 0)
(-0.321942 0.886229 0)
(-0.454958 0.916145 0)
(-0.582215 0.882975 0)
(-0.699703 0.799099 0)
(-0.805294 0.672426 0)
(-0.897564 0.507733 0)
(-0.974693 0.308345 0)
(-1.03361 0.0779497 0)
(-1.06933 -0.177407 0)
(-1.07461 -0.447056 0)
(-1.04017 -0.713128 0)
(-0.956063 -0.948039 0)
(-0.815076 -1.1132 0)
(-0.618225 -1.16148 0)
(-0.38322 -1.04686 0)
(-0.159516 -0.744414 0)
(-0.0295781 -0.277377 0)
(-0.0166136 0.274022 0)
(-0.0844441 0.660518 0)
(-0.200541 0.898907 0)
(-0.330505 1.01692 0)
(-0.456626 1.04343 0)
(-0.572779 1.00138 0)
(-0.67714 0.906433 0)
(-0.769971 0.767948 0)
(-0.85223 0.590816 0)
(-0.92436 0.377424 0)
(-0.985303 0.129656 0)
(-1.03161 -0.148957 0)
(-1.05656 -0.450631 0)
(-1.04966 -0.759962 0)
(-0.997075 -1.04973 0)
(-0.884244 -1.27678 0)
(-0.701826 -1.38069 0)
(-0.457745 -1.29125 0)
(-0.202457 -0.953035 0)
(-0.0407645 -0.370142 0)
(-0.019852 0.320986 0)
(-0.0944496 0.762169 0)
(-0.213829 1.02199 0)
(-0.337761 1.14052 0)
(-0.448447 1.15744 0)
(-0.542596 1.10263 0)
(-0.621742 0.995417 0)
(-0.689393 0.846686 0)
(-0.74955 0.661352 0)
(-0.805557 0.440729 0)
(-0.859167 0.184636 0)
(-0.909558 -0.106508 0)
(-0.952085 -0.429084 0)
(-0.976849 -0.772502 0)
(-0.967686 -1.11354 0)
(-0.902925 -1.40877 0)
(-0.760016 -1.58722 0)
(-0.529829 -1.55078 0)
(-0.254015 -1.19817 0)
(-0.0565955 -0.489856 0)
(-0.0265046 0.376013 0)
(-0.112906 0.87136 0)
(-0.235479 1.14225 0)
(-0.346297 1.24919 0)
(-0.429461 1.24697 0)
(-0.487032 1.17366 0)
(-0.525586 1.0523 0)
(-0.552808 0.894956 0)
(-0.576242 0.706301 0)
(-0.602466 0.486488 0)
(-0.636482 0.233275 0)
(-0.680922 -0.0561667 0)
(-0.7347 -0.383108 0)
(-0.790867 -0.743781 0)
(-0.833907 -1.12308 0)
(-0.83749 -1.48384 0)
(-0.765336 -1.75173 0)
(-0.584386 -1.8025 0)
(-0.312447 -1.47401 0)
(-0.0788545 -0.643573 0)
(-0.0400056 0.447077 0)
(-0.146909 0.992461 0)
(-0.270651 1.25495 0)
(-0.355539 1.33114 0)
(-0.392808 1.29647 0)
(-0.39416 1.19763 0)
(-0.373314 1.06034 0)
(-0.342891 0.89676 0)
(-0.314017 0.710656 0)
(-0.296228 0.500835 0)
(-0.297511 0.263224 0)
(-0.324046 -0.00779391 0)
(-0.379174 -0.318145 0)
(-0.461118 -0.671736 0)
(-0.558999 -1.06502 0)
(-0.64705 -1.47483 0)
(-0.679098 -1.83564 0)
(-0.595055 -2.00826 0)
(-0.370539 -1.7626 0)
(-0.108917 -0.838489 0)
(-0.0657144 0.549481 0)
(-0.204747 1.13015 0)
(-0.318355 1.34903 0)
(-0.351053 1.36662 0)
(-0.313277 1.28371 0)
(-0.232435 1.15327 0)
(-0.131002 1.0006 0)
(-0.0262685 0.835634 0)
(0.068086 0.659955 0)
(0.140864 0.470629 0)
(0.182378 0.262133 0)
(0.183933 0.0270613 0)
(0.138133 -0.243754 0)
(0.0404907 -0.560801 0)
(-0.106551 -0.933124 0)
(-0.285254 -1.3581 0)
(-0.449439 -1.79478 0)
(-0.517768 -2.11276 0)
(-0.407777 -2.02686 0)
(-0.144221 -1.08078 0)
(-0.108542 0.712129 0)
(-0.286065 1.28074 0)
(-0.348951 1.39356 0)
(-0.276101 1.31803 0)
(-0.119745 1.17511 0)
(0.0729652 1.01428 0)
(0.272899 0.853941 0)
(0.46126 0.698152 0)
(0.624935 0.544562 0)
(0.753834 0.388112 0)
(0.839004 0.222358 0)
(0.871416 0.0395069 0)
(0.841484 -0.170451 0)
(0.739375 -0.421206 0)
(0.557379 -0.73127 0)
(0.297836 -1.11998 0)
(-0.00899014 -1.58557 0)
(-0.281511 -2.04311 0)
(-0.376042 -2.2005 0)
(-0.167781 -1.37371 0)
(-0.155421 0.978429 0)
(-0.340077 1.40041 0)
(-0.237094 1.30641 0)
(0.03348 1.11473 0)
(0.355061 0.923745 0)
(0.674837 0.754302 0)
(0.969829 0.608652 0)
(1.22814 0.481894 0)
(1.44296 0.367101 0)
(1.60936 0.257499 0)
(1.7222 0.146734 0)
(1.77484 0.0282419 0)
(1.75835 -0.106056 0)
(1.66052 -0.268164 0)
(1.46546 -0.478179 0)
(1.15692 -0.768852 0)
(0.731254 -1.18063 0)
(0.228207 -1.71331 0)
(-0.173245 -2.15943 0)
(-0.118901 -1.67496 0)
(-0.047537 1.26946 0)
(-0.0720163 1.31684 0)
(0.411491 0.968953 0)
(0.958267 0.709548 0)
(1.42959 0.529347 0)
(1.82323 0.398427 0)
(2.14934 0.301146 0)
(2.41427 0.226139 0)
(2.62278 0.164589 0)
(2.77791 0.110115 0)
(2.88013 0.0580064 0)
(2.927 0.00428381 0)
(2.91279 -0.0552927 0)
(2.82702 -0.127353 0)
(2.65187 -0.224381 0)
(2.35843 -0.373278 0)
(1.90183 -0.630373 0)
(1.22457 -1.07919 0)
(0.452845 -1.68852 0)
(0.217505 -1.70177 0)
(1.43828 0.707208 0)
(1.83573 0.626585 0)
(2.56338 0.398283 0)
(3.13747 0.25167 0)
(3.51188 0.164258 0)
(3.76908 0.109431 0)
(3.95665 0.0740036 0)
(4.09503 0.050239 0)
(4.19517 0.0331224 0)
(4.26354 0.0195235 0)
(4.30321 0.00749313 0)
(4.31469 -0.00430668 0)
(4.29613 -0.0169545 0)
(4.24276 -0.0321733 0)
(4.14478 -0.0531792 0)
(3.98103 -0.087982 0)
(3.70231 -0.158355 0)
(3.17424 -0.316155 0)
(2.29945 -0.622743 0)
(1.66821 -0.779849 0)
)
;

boundaryField
{
    movingWall
    {
        type            fixedValue;
        value           uniform (5.07396 0 0);
    }
    fixedWalls
    {
        type            noSlip;
    }
    frontAndBack
    {
        type            empty;
    }
}


// ************************************************************************* //
