/*--------------------------------*- C++ -*----------------------------------*\
| =========                 |                                                 |
| \\      /  F ield         | OpenFOAM: The Open Source CFD Toolbox           |
|  \\    /   O peration     | Version:  2212                                  |
|   \\  /    A nd           | Website:  www.openfoam.com                      |
|    \\/     M anipulation  |                                                 |
\*---------------------------------------------------------------------------*/
FoamFile
{
    version     2.0;
    format      ascii;
    arch        "LSB;label=32;scalar=64";
    class       volVectorField;
    location    "0.3";
    object      U;
}
// * * * * * * * * * * * * * * * * * * * * * * * * * * * * * * * * * * * * * //

dimensions      [0 1 -1 0 0 0 0];

internalField   nonuniform List<vector> 
46
(
(0.357571 0 0)
(0.327205 0 0)
(0.287752 0 0)
(0.238648 0 0)
(0.419613 0 0)
(0.387159 0 0)
(0.343978 0 0)
(0.288664 0 0)
(0.220231 0 0)
(0.138979 0 0)
(0.0476702 0 0)
(0.491082 0 0)
(0.457884 0 0)
(0.412373 0 0)
(0.351826 0 0)
(0.273477 0 0)
(0.17582 0 0)
(0.0611743 0 0)
(0.572704 0 0)
(0.540958 0 0)
(0.495835 0 0)
(0.432814 0 0)
(0.346048 0 0)
(0.22966 0 0)
(0.0823849 0 0)
(0.664586 0 0)
(0.637439 0 0)
(0.597218 0 0)
(0.537567 0 0)
(0.448255 0 0)
(0.314396 0 0)
(0.121093 0 0)
(0.765741 0 0)
(0.747013 0 0)
(0.718047 0 0)
(0.671997 0 0)
(0.595018 0 0)
(0.458584 0 0)
(0.208686 0 0)
(0.873612 0 0)
(0.86684 0 0)
(0.85597 0 0)
(0.837363 0 0)
(0.801245 0 0)
(0.716238 0 0)
(0.463755 0 0)
)
;

boundaryField
{
    movingWall
    {
        type            fixedValue;
        value           uniform (0.928803 0 0);
    }
    fixedWalls
    {
        type            noSlip;
    }
    frontAndBack
    {
        type            empty;
    }
    procBoundary8to4
    {
        type            processor;
        value           uniform (0.379568 0 0);
    }
    procBoundary8to5
    {
        type            processor;
        value           nonuniform List<vector> 8((0.303963 0 0) (0.276387 0 0) (0.241221 0 0) (0.198387 0 0) (0.179826 0 0) (0.179826 0 0) (0.11221 0 0) (0.0382023 0 0));
    }
    procBoundary8to7
    {
        type            processor;
        value           nonuniform List<vector> 6((0.442691 0 0) (0.514171 0 0) (0.594224 0 0) (0.682487 0 0) (0.777769 0 0) (0.877879 0 0));
    }
}


// ************************************************************************* //
