/*--------------------------------*- C++ -*----------------------------------*\
  =========                 |
  \\      /  F ield         | OpenFOAM: The Open Source CFD Toolbox
   \\    /   O peration     | Website:  https://openfoam.org
    \\  /    A nd           | Version:  9
     \\/     M anipulation  |
\*---------------------------------------------------------------------------*/
FoamFile
{
    format      ascii;
    class       volVectorField;
    location    "0.055";
    object      U;
}
// * * * * * * * * * * * * * * * * * * * * * * * * * * * * * * * * * * * * * //

dimensions      [0 1 -1 0 0 0 0];

internalField   nonuniform List<vector> 
40
(
(-0.0490309 -0.00483516 0)
(-0.0356707 -0.00539265 0)
(-0.0217836 -0.00513049 0)
(-0.00957314 -0.00390725 0)
(-0.00132212 -0.00183486 0)
(0.000618089 0.000652926 0)
(-0.12303 -0.0234032 0)
(-0.0929933 -0.0257437 0)
(-0.0617256 -0.0246832 0)
(-0.0333343 -0.0198135 0)
(-0.0117966 -0.0115231 0)
(-0.00199466 -0.000969366 0)
(-0.184209 -0.0579088 0)
(-0.141666 -0.0634644 0)
(-0.0970087 -0.0614619 0)
(-0.0553723 -0.0512922 0)
(-0.0220489 -0.0337393 0)
(-0.00457488 -0.00946734 0)
(-0.240055 -0.103575 0)
(-0.186369 -0.113613 0)
(-0.129485 -0.111223 0)
(-0.0754158 -0.0950148 0)
(-0.0309393 -0.0661152 0)
(-0.0066404 -0.0232278 0)
(-0.294883 -0.159106 0)
(-0.230345 -0.175211 0)
(-0.160984 -0.172592 0)
(-0.0946266 -0.150172 0)
(-0.0391748 -0.107884 0)
(-0.0084438 -0.0415307 0)
(-0.352975 -0.223744 0)
(-0.277482 -0.247783 0)
(-0.195442 -0.246784 0)
(-0.115079 -0.216835 0)
(-0.0477435 -0.158953 0)
(-0.0102034 -0.0640137 0)
(-0.236491 -0.334336 0)
(-0.14071 -0.297389 0)
(-0.0584159 -0.220538 0)
(-0.0124175 -0.091072 0)
)
;

boundaryField
{
    movingWall
    {
        type            fixedValue;
        value           nonuniform List<vector> 0();
    }
    fixedWalls
    {
        type            noSlip;
    }
    frontAndBack
    {
        type            empty;
    }
    procBoundary7to5
    {
        type            processor;
        value           nonuniform List<vector> 6((-0.0604528 -0.00385807 0) (-0.149056 -0.0190006 0) (-0.221231 -0.0474098 0) (-0.286619 -0.0849562 0) (-0.349926 -0.129924 0) (-0.416158 -0.181769 0));
    }
    procBoundary7to8
    {
        type            processor;
        value           nonuniform List<vector> 7((-0.418555 -0.298081 0) (-0.333009 -0.333157 0) (-0.333009 -0.333157 0) (-0.286969 -0.438574 0) (-0.17312 -0.394644 0) (-0.0731688 -0.296592 0) (-0.015683 -0.124642 0));
    }
}


// ************************************************************************* //
