/*--------------------------------*- C++ -*----------------------------------*\
| =========                 |                                                 |
| \\      /  F ield         | OpenFOAM: The Open Source CFD Toolbox           |
|  \\    /   O peration     | Version:  2212                                  |
|   \\  /    A nd           | Website:  www.openfoam.com                      |
|    \\/     M anipulation  |                                                 |
\*---------------------------------------------------------------------------*/
FoamFile
{
    version     2.0;
    format      ascii;
    arch        "LSB;label=32;scalar=64";
    class       volVectorField;
    location    "0.5";
    object      U;
}
// * * * * * * * * * * * * * * * * * * * * * * * * * * * * * * * * * * * * * //

dimensions      [0 1 -1 0 0 0 0];

internalField   nonuniform List<vector> 
400
(
(0.000665381 0 0)
(0.00197891 0 0)
(0.00324137 0 0)
(0.00442075 0 0)
(0.00548777 0 0)
(0.00641668 0 0)
(0.00718579 0 0)
(0.00777771 0 0)
(0.00817947 0 0)
(0.00838248 0 0)
(0.00838245 0 0)
(0.0081794 0 0)
(0.00777759 0 0)
(0.00718563 0 0)
(0.00641649 0 0)
(0.00548755 0 0)
(0.00442053 0 0)
(0.00324117 0 0)
(0.00197874 0 0)
(0.000665306 0 0)
(0.00201341 0 0)
(0.00598791 0 0)
(0.00980747 0 0)
(0.013375 0 0)
(0.0166019 0 0)
(0.0194104 0 0)
(0.0217352 0 0)
(0.023524 0 0)
(0.024738 0 0)
(0.0253513 0 0)
(0.0253512 0 0)
(0.0247378 0 0)
(0.0235237 0 0)
(0.0217348 0 0)
(0.0194099 0 0)
(0.0166013 0 0)
(0.0133744 0 0)
(0.00980694 0 0)
(0.00598748 0 0)
(0.00201322 0 0)
(0.00341387 0 0)
(0.0101523 0 0)
(0.0166265 0 0)
(0.0226712 0 0)
(0.028136 0 0)
(0.0328899 0 0)
(0.0368229 0 0)
(0.0398477 0 0)
(0.0418997 0 0)
(0.0429361 0 0)
(0.0429361 0 0)
(0.0418994 0 0)
(0.0398472 0 0)
(0.0368223 0 0)
(0.0328892 0 0)
(0.0281353 0 0)
(0.0226704 0 0)
(0.0166258 0 0)
(0.0101518 0 0)
(0.00341361 0 0)
(0.00490385 0 0)
(0.014582 0 0)
(0.0238768 0 0)
(0.0325494 0 0)
(0.0403841 0 0)
(0.0471936 0 0)
(0.0528225 0 0)
(0.0571484 0 0)
(0.0600812 0 0)
(0.0615621 0 0)
(0.061562 0 0)
(0.0600809 0 0)
(0.0571479 0 0)
(0.0528218 0 0)
(0.0471927 0 0)
(0.0403832 0 0)
(0.0325485 0 0)
(0.0238759 0 0)
(0.0145813 0 0)
(0.00490356 0 0)
(0.00652379 0 0)
(0.0193963 0 0)
(0.0317515 0 0)
(0.0432689 0 0)
(0.0536614 0 0)
(0.0626825 0 0)
(0.0701304 0 0)
(0.0758479 0 0)
(0.0797208 0 0)
(0.0816754 0 0)
(0.0816753 0 0)
(0.0797205 0 0)
(0.0758473 0 0)
(0.0701297 0 0)
(0.0626817 0 0)
(0.0536604 0 0)
(0.0432679 0 0)
(0.0317506 0 0)
(0.0193956 0 0)
(0.00652348 0 0)
(0.00831927 0 0)
(0.0247296 0 0)
(0.0404668 0 0)
(0.0551172 0 0)
(0.0683149 0 0)
(0.0797506 0 0)
(0.0891753 0 0)
(0.096399 0 0)
(0.101286 0 0)
(0.103751 0 0)
(0.103751 0 0)
(0.101286 0 0)
(0.0963985 0 0)
(0.0891746 0 0)
(0.0797498 0 0)
(0.0683141 0 0)
(0.0551164 0 0)
(0.0404659 0 0)
(0.024729 0 0)
(0.00831896 0 0)
(0.0103435 0 0)
(0.0307381 0 0)
(0.0502721 0 0)
(0.0684231 0 0)
(0.0847364 0 0)
(0.0988364 0 0)
(0.110429 0 0)
(0.119295 0 0)
(0.125284 0 0)
(0.1283 0 0)
(0.1283 0 0)
(0.125283 0 0)
(0.119295 0 0)
(0.110428 0 0)
(0.0988357 0 0)
(0.0847356 0 0)
(0.0684223 0 0)
(0.0502713 0 0)
(0.0307375 0 0)
(0.0103432 0 0)
(0.0126608 0 0)
(0.0376095 0 0)
(0.0614642 0 0)
(0.083572 0 0)
(0.103378 0 0)
(0.120438 0 0)
(0.134417 0 0)
(0.145078 0 0)
(0.152263 0 0)
(0.155877 0 0)
(0.155877 0 0)
(0.152262 0 0)
(0.145078 0 0)
(0.134417 0 0)
(0.120437 0 0)
(0.103377 0 0)
(0.0835713 0 0)
(0.0614636 0 0)
(0.037609 0 0)
(0.0126605 0 0)
(0.0153518 0 0)
(0.0455774 0 0)
(0.0744075 0 0)
(0.101028 0 0)
(0.124772 0 0)
(0.145128 0 0)
(0.161733 0 0)
(0.174347 0 0)
(0.182823 0 0)
(0.187078 0 0)
(0.187078 0 0)
(0.182823 0 0)
(0.174347 0 0)
(0.161733 0 0)
(0.145128 0 0)
(0.124772 0 0)
(0.101028 0 0)
(0.074407 0 0)
(0.045577 0 0)
(0.0153515 0 0)
(0.0185214 0 0)
(0.0549434 0 0)
(0.0895642 0 0)
(0.121368 0 0)
(0.149562 0 0)
(0.173578 0 0)
(0.19305 0 0)
(0.207766 0 0)
(0.217614 0 0)
(0.222547 0 0)
(0.222547 0 0)
(0.217614 0 0)
(0.207766 0 0)
(0.19305 0 0)
(0.173578 0 0)
(0.149561 0 0)
(0.121368 0 0)
(0.0895639 0 0)
(0.0549431 0 0)
(0.0185212 0 0)
(0.0223128 0 0)
(0.0661131 0 0)
(0.107542 0 0)
(0.145326 0 0)
(0.178536 0 0)
(0.20658 0 0)
(0.229135 0 0)
(0.246063 0 0)
(0.257334 0 0)
(0.26296 0 0)
(0.26296 0 0)
(0.257334 0 0)
(0.246063 0 0)
(0.229135 0 0)
(0.20658 0 0)
(0.178536 0 0)
(0.145326 0 0)
(0.107542 0 0)
(0.0661129 0 0)
(0.0223127 0 0)
(0.0269304 0 0)
(0.0796567 0 0)
(0.12917 0 0)
(0.173863 0 0)
(0.212684 0 0)
(0.245081 0 0)
(0.270856 0 0)
(0.290029 0 0)
(0.302708 0 0)
(0.309012 0 0)
(0.309012 0 0)
(0.302708 0 0)
(0.290029 0 0)
(0.270856 0 0)
(0.245081 0 0)
(0.212684 0 0)
(0.173863 0 0)
(0.12917 0 0)
(0.0796566 0 0)
(0.0269303 0 0)
(0.0326832 0 0)
(0.0964157 0 0)
(0.155624 0 0)
(0.208276 0 0)
(0.253265 0 0)
(0.290211 0 0)
(0.319191 0 0)
(0.340498 0 0)
(0.354469 0 0)
(0.36138 0 0)
(0.36138 0 0)
(0.354469 0 0)
(0.340498 0 0)
(0.319191 0 0)
(0.290212 0 0)
(0.253266 0 0)
(0.208276 0 0)
(0.155624 0 0)
(0.0964158 0 0)
(0.0326831 0 0)
(0.0400705 0 0)
(0.117702 0 0)
(0.188638 0 0)
(0.250359 0 0)
(0.301896 0 0)
(0.343317 0 0)
(0.375208 0 0)
(0.398312 0 0)
(0.413302 0 0)
(0.420669 0 0)
(0.420669 0 0)
(0.413302 0 0)
(0.398312 0 0)
(0.375209 0 0)
(0.343317 0 0)
(0.301897 0 0)
(0.250359 0 0)
(0.188638 0 0)
(0.117702 0 0)
(0.0400705 0 0)
(0.0499686 0 0)
(0.145685 0 0)
(0.23087 0 0)
(0.302631 0 0)
(0.360651 0 0)
(0.405959 0 0)
(0.440022 0 0)
(0.46425 0 0)
(0.479767 0 0)
(0.487335 0 0)
(0.487335 0 0)
(0.479767 0 0)
(0.46425 0 0)
(0.440023 0 0)
(0.40596 0 0)
(0.360652 0 0)
(0.302631 0 0)
(0.230871 0 0)
(0.145685 0 0)
(0.0499686 0 0)
(0.064088 0 0)
(0.184201 0 0)
(0.286531 0 0)
(0.368648 0 0)
(0.432124 0 0)
(0.479853 0 0)
(0.51468 0 0)
(0.538907 0 0)
(0.55419 0 0)
(0.561579 0 0)
(0.561579 0 0)
(0.55419 0 0)
(0.538907 0 0)
(0.51468 0 0)
(0.479853 0 0)
(0.432125 0 0)
(0.368648 0 0)
(0.286532 0 0)
(0.184202 0 0)
(0.0640881 0 0)
(0.0862708 0 0)
(0.240503 0 0)
(0.362408 0 0)
(0.453309 0 0)
(0.519351 0 0)
(0.566653 0 0)
(0.599944 0 0)
(0.622515 0 0)
(0.636515 0 0)
(0.643218 0 0)
(0.643219 0 0)
(0.636515 0 0)
(0.622516 0 0)
(0.599944 0 0)
(0.566654 0 0)
(0.519352 0 0)
(0.453309 0 0)
(0.362409 0 0)
(0.240504 0 0)
(0.0862709 0 0)
(0.126763 0 0)
(0.329134 0 0)
(0.469293 0 0)
(0.562831 0 0)
(0.625321 0 0)
(0.667472 0 0)
(0.695932 0 0)
(0.714702 0 0)
(0.726142 0 0)
(0.731568 0 0)
(0.731568 0 0)
(0.726142 0 0)
(0.714702 0 0)
(0.695932 0 0)
(0.667472 0 0)
(0.625322 0 0)
(0.562831 0 0)
(0.469293 0 0)
(0.329134 0 0)
(0.126763 0 0)
(0.218412 0 0)
(0.479976 0 0)
(0.622801 0 0)
(0.703403 0 0)
(0.751634 0 0)
(0.781984 0 0)
(0.801613 0 0)
(0.814222 0 0)
(0.821789 0 0)
(0.825347 0 0)
(0.825348 0 0)
(0.821789 0 0)
(0.814223 0 0)
(0.801613 0 0)
(0.781984 0 0)
(0.751635 0 0)
(0.703403 0 0)
(0.622801 0 0)
(0.479977 0 0)
(0.218412 0 0)
(0.485322 0 0)
(0.749559 0 0)
(0.838533 0 0)
(0.876346 0 0)
(0.895832 0 0)
(0.907219 0 0)
(0.914316 0 0)
(0.918789 0 0)
(0.921445 0 0)
(0.922688 0 0)
(0.922688 0 0)
(0.921446 0 0)
(0.918789 0 0)
(0.914316 0 0)
(0.907219 0 0)
(0.895832 0 0)
(0.876346 0 0)
(0.838534 0 0)
(0.749559 0 0)
(0.485322 0 0)
)
;

boundaryField
{
    movingWall
    {
        type            fixedValue;
        value           uniform (0.971981 0 0);
    }
    fixedWalls
    {
        type            noSlip;
    }
    frontAndBack
    {
        type            empty;
    }
}


// ************************************************************************* //
