/*--------------------------------*- C++ -*----------------------------------*\
  =========                 |
  \\      /  F ield         | OpenFOAM: The Open Source CFD Toolbox
   \\    /   O peration     | Website:  https://openfoam.org
    \\  /    A nd           | Version:  9
     \\/     M anipulation  |
\*---------------------------------------------------------------------------*/
FoamFile
{
    format      ascii;
    class       volVectorField;
    location    "0.05";
    object      U;
}
// * * * * * * * * * * * * * * * * * * * * * * * * * * * * * * * * * * * * * //

dimensions      [0 1 -1 0 0 0 0];

internalField   nonuniform List<vector> 
40
(
(-0.821923 0.0429093 0)
(-0.834965 -0.127873 0)
(-0.82573 -0.308179 0)
(-0.789048 -0.491259 0)
(-0.837616 0.0664098 0)
(-0.856304 -0.122635 0)
(-0.857177 -0.326194 0)
(-0.834142 -0.53932 0)
(-0.797014 0.0925208 0)
(-0.819655 -0.109113 0)
(-0.832272 -0.330262 0)
(-0.828642 -0.568887 0)
(-0.673296 0.117108 0)
(-0.695826 -0.0880956 0)
(-0.720003 -0.316907 0)
(-0.740488 -0.571783 0)
(-0.435914 0.133543 0)
(-0.452403 -0.0629297 0)
(-0.485146 -0.285243 0)
(-0.531544 -0.541034 0)
(-0.0499605 0.134642 0)
(-0.0541119 -0.0388921 0)
(-0.0904415 -0.237135 0)
(-0.160245 -0.472915 0)
(0.525052 0.115034 0)
(0.535905 -0.0213237 0)
(0.501183 -0.177296 0)
(0.414561 -0.369065 0)
(1.33494 0.0754544 0)
(1.35603 -0.0127072 0)
(1.32529 -0.112529 0)
(1.2322 -0.239268 0)
(2.42141 0.0285817 0)
(2.43945 -0.0103982 0)
(2.4123 -0.0536648 0)
(2.32906 -0.110095 0)
(3.77522 0.0030238 0)
(3.77714 -0.00521533 0)
(3.75732 -0.0137529 0)
(3.71169 -0.0252177 0)
)
;

boundaryField
{
    movingWall
    {
        type            fixedValue;
        value           uniform (4.52449 0 0);
    }
    fixedWalls
    {
        type            noSlip;
    }
    frontAndBack
    {
        type            empty;
    }
    procBoundary6to3
    {
        type            processor;
        value           nonuniform List<vector> 5((-0.756619 0.18595 0) (-0.776649 0.220179 0) (-0.747536 0.252422 0) (-0.644495 0.276713 0) (-0.438903 0.285003 0));
    }
    procBoundary6to4
    {
        type            processor;
        value           nonuniform List<vector> 5((-0.0939252 0.268846 0) (0.43668 0.222461 0) (1.20989 0.147489 0) (2.2808 0.0625393 0) (3.64707 0.0109375 0));
    }
    procBoundary6to5
    {
        type            processor;
        value           nonuniform List<vector> 4((-0.732103 0.0205111 0) (-0.737741 -0.11941 0) (-0.720911 -0.263884 0) (-0.677889 -0.407237 0));
    }
    procBoundary6to8
    {
        type            processor;
        value           nonuniform List<vector> 4((-0.680718 -0.624557 0) (-0.740514 -0.706064 0) (-0.764123 -0.770164 0) (-0.722079 -0.804488 0));
    }
    procBoundary6to9
    {
        type            processor;
        value           nonuniform List<vector> 6((-0.573764 -0.794028 0) (-0.271784 -0.725702 0) (0.236116 -0.591756 0) (1.00373 -0.399096 0) (2.08848 -0.18768 0) (3.52308 -0.042184 0));
    }
}


// ************************************************************************* //
