/*--------------------------------*- C++ -*----------------------------------*\
  =========                 |
  \\      /  F ield         | OpenFOAM: The Open Source CFD Toolbox
   \\    /   O peration     | Website:  https://openfoam.org
    \\  /    A nd           | Version:  9
     \\/     M anipulation  |
\*---------------------------------------------------------------------------*/
FoamFile
{
    format      ascii;
    class       volVectorField;
    location    "0.03";
    object      U;
}
// * * * * * * * * * * * * * * * * * * * * * * * * * * * * * * * * * * * * * //

dimensions      [0 1 -1 0 0 0 0];

internalField   nonuniform List<vector> 
40
(
(-0.0224363 0.00260856 0)
(-0.0303352 0.00268202 0)
(-0.0375233 0.00243278 0)
(-0.0433424 0.0019 0)
(-0.0471901 0.00113969 0)
(-0.076384 0.0148896 0)
(-0.0945085 0.0142024 0)
(-0.110459 0.0122306 0)
(-0.122966 0.00906857 0)
(-0.130792 0.00493567 0)
(-0.126594 0.0376652 0)
(-0.152249 0.0348339 0)
(-0.174237 0.029283 0)
(-0.191047 0.0210883 0)
(-0.201118 0.0107724 0)
(-0.164879 0.0682355 0)
(-0.197114 0.0618401 0)
(-0.224346 0.0511082 0)
(-0.244848 0.0360891 0)
(-0.25691 0.0176487 0)
(-0.195156 0.105572 0)
(-0.233486 0.0944124 0)
(-0.265736 0.0771572 0)
(-0.289978 0.0538951 0)
(-0.304378 0.0258172 0)
(-0.221814 0.149179 0)
(-0.266061 0.13241 0)
(-0.30335 0.107584 0)
(-0.331609 0.074926 0)
(-0.348922 0.0360022 0)
(-0.249017 0.198846 0)
(-0.299302 0.17588 0)
(-0.341727 0.142665 0)
(-0.374146 0.0997156 0)
(-0.394749 0.0489978 0)
(-0.281568 0.254853 0)
(-0.338171 0.224887 0)
(-0.385728 0.182383 0)
(-0.422004 0.128312 0)
(-0.445437 0.0649243 0)
)
;

boundaryField
{
    movingWall
    {
        type            fixedValue;
        value           nonuniform List<vector> 0();
    }
    fixedWalls
    {
        type            noSlip;
    }
    frontAndBack
    {
        type            empty;
    }
    procBoundary2to0
    {
        type            processor;
        value           nonuniform List<vector> 8((-0.0122713 0.00174535 0) (-0.0501419 0.0120444 0) (-0.0867001 0.0321849 0) (-0.112904 0.0601488 0) (-0.132213 0.0946696 0) (-0.148552 0.134868 0) (-0.165478 0.180435 0) (-0.187125 0.231504 0));
    }
    procBoundary2to3
    {
        type            processor;
        value           nonuniform List<vector> 5((-0.277889 0.270229 0) (-0.331537 0.237057 0) (-0.375203 0.191455 0) (-0.407555 0.134757 0) (-0.427698 0.0693807 0));
    }
    procBoundary2to5
    {
        type            processor;
        value           nonuniform List<vector> 8((-0.0418567 0.000281653 0) (-0.115212 0.00050558 0) (-0.176106 -0.0002661 0) (-0.223771 -0.001945 0) (-0.264108 -0.00388338 0) (-0.302223 -0.00528418 0) (-0.341843 -0.00535043 0) (-0.385987 -0.00376126 0));
    }
}


// ************************************************************************* //
