/*--------------------------------*- C++ -*----------------------------------*\
  =========                 |
  \\      /  F ield         | OpenFOAM: The Open Source CFD Toolbox
   \\    /   O peration     | Website:  https://openfoam.org
    \\  /    A nd           | Version:  9
     \\/     M anipulation  |
\*---------------------------------------------------------------------------*/
FoamFile
{
    format      ascii;
    class       surfaceScalarField;
    location    "0.07";
    object      phi;
}
// * * * * * * * * * * * * * * * * * * * * * * * * * * * * * * * * * * * * * //

dimensions      [0 3 -1 0 0 0 0];

internalField   nonuniform List<scalar> 
67
(
-1.77252e-06
-6.44473e-07
-1.10914e-06
-6.63382e-07
-5.25037e-07
-5.841e-07
-1.16532e-07
-4.08507e-07
5.18007e-08
-1.68333e-07
5.18016e-08
-5.24921e-06
-2.24616e-06
-3.58145e-06
-2.33115e-06
-2.05518e-06
-2.11037e-06
-8.72249e-07
-1.59144e-06
-1.75731e-07
-8.6485e-07
-1.23929e-07
-8.48045e-06
-4.6241e-06
-5.9675e-06
-4.8441e-06
-3.6035e-06
-4.47438e-06
-1.67655e-06
-3.51838e-06
-4.26521e-07
-2.11488e-06
-5.50449e-07
-1.14925e-05
-7.67102e-06
-8.2188e-06
-8.1178e-06
-5.06939e-06
-7.62378e-06
-2.42369e-06
-6.16408e-06
-6.41635e-07
-3.89694e-06
-1.19208e-06
-1.44904e-05
-1.13345e-05
-1.04781e-05
-1.21301e-05
-6.53831e-06
-1.15636e-05
-3.1584e-06
-9.54399e-06
-8.40444e-07
-6.21489e-06
-2.03253e-06
-1.76794e-05
-1.29197e-05
-8.1429e-06
-1.63403e-05
-3.96279e-06
-1.37241e-05
-1.05612e-06
-9.12156e-06
-3.08864e-06
-1.00184e-05
-4.9278e-06
-1.3235e-06
)
;

boundaryField
{
    movingWall
    {
        type            calculated;
        value           nonuniform List<scalar> 0();
    }
    fixedWalls
    {
        type            calculated;
        value           uniform 0;
    }
    frontAndBack
    {
        type            empty;
        value           nonuniform List<scalar> 0();
    }
    procBoundary7to5
    {
        type            processor;
        value           nonuniform List<scalar> 6(2.417e-06 6.8509e-06 1.08584e-05 1.45394e-05 1.81538e-05 2.19223e-05);
    }
    procBoundary7to8
    {
        type            processor;
        value           nonuniform List<scalar> 7(-1.55773e-05 -1.68899e-05 1.57036e-05 -2.20255e-05 -1.88148e-05 -1.27259e-05 -4.41214e-06);
    }
}


// ************************************************************************* //
