/*--------------------------------*- C++ -*----------------------------------*\
  =========                 |
  \\      /  F ield         | OpenFOAM: The Open Source CFD Toolbox
   \\    /   O peration     | Website:  https://openfoam.org
    \\  /    A nd           | Version:  9
     \\/     M anipulation  |
\*---------------------------------------------------------------------------*/
FoamFile
{
    format      ascii;
    class       volVectorField;
    location    "0.09";
    object      U;
}
// * * * * * * * * * * * * * * * * * * * * * * * * * * * * * * * * * * * * * //

dimensions      [0 1 -1 0 0 0 0];

internalField   nonuniform List<vector> 
40
(
(-0.944629 0.0686417 0)
(-0.969511 -0.153396 0)
(-0.967802 -0.388437 0)
(-0.932368 -0.623268 0)
(-0.917648 0.106921 0)
(-0.950314 -0.136036 0)
(-0.963567 -0.398693 0)
(-0.949211 -0.670178 0)
(-0.823734 0.147488 0)
(-0.859792 -0.107864 0)
(-0.887365 -0.389337 0)
(-0.898647 -0.690086 0)
(-0.641052 0.183199 0)
(-0.673469 -0.0726179 0)
(-0.711936 -0.359474 0)
(-0.750604 -0.675941 0)
(-0.344924 0.204891 0)
(-0.364834 -0.0369781 0)
(-0.407978 -0.311488 0)
(-0.472288 -0.623747 0)
(0.0951334 0.203038 0)
(0.0950739 -0.00878157 0)
(0.0544524 -0.250647 0)
(-0.0299164 -0.533596 0)
(0.717855 0.171603 0)
(0.740127 0.00578647 0)
(0.706936 -0.183511 0)
(0.610297 -0.41008 0)
(1.57269 0.112996 0)
(1.60947 0.00536659 0)
(1.58363 -0.116249 0)
(1.48404 -0.264447 0)
(2.70713 0.0442013 0)
(2.73942 -0.00404931 0)
(2.71628 -0.0575479 0)
(2.62745 -0.123549 0)
(4.11438 0.00535854 0)
(4.12097 -0.00494315 0)
(4.10069 -0.0159202 0)
(4.04938 -0.0295209 0)
)
;

boundaryField
{
    movingWall
    {
        type            fixedValue;
        value           uniform (4.88627 0 0);
    }
    fixedWalls
    {
        type            noSlip;
    }
    frontAndBack
    {
        type            empty;
    }
    procBoundary6to3
    {
        type            processor;
        value           nonuniform List<vector> 5((-0.887139 0.264497 0) (-0.859997 0.318121 0) (-0.773642 0.36677 0) (-0.60888 0.401537 0) (-0.341925 0.411046 0));
    }
    procBoundary6to4
    {
        type            processor;
        value           nonuniform List<vector> 5((0.0592284 0.384975 0) (0.640033 0.317034 0) (1.46172 0.210078 0) (2.58815 0.0895502 0) (4.02304 0.0157522 0));
    }
    procBoundary6to5
    {
        type            processor;
        value           nonuniform List<vector> 4((-0.910701 0.0347966 0) (-0.925197 -0.157974 0) (-0.909879 -0.357322 0) (-0.85911 -0.549818 0));
    }
    procBoundary6to8
    {
        type            processor;
        value           nonuniform List<vector> 4((-0.841103 -0.823737 0) (-0.881859 -0.915819 0) (-0.866878 -0.978641 0) (-0.765316 -0.998066 0));
    }
    procBoundary6to9
    {
        type            processor;
        value           nonuniform List<vector> 6((-0.540954 -0.96056 0) (-0.154321 -0.856716 0) (0.436102 -0.684131 0) (1.27583 -0.454095 0) (2.41795 -0.212781 0) (3.89742 -0.0487104 0));
    }
}


// ************************************************************************* //
