/*--------------------------------*- C++ -*----------------------------------*\
| =========                 |                                                 |
| \\      /  F ield         | OpenFOAM: The Open Source CFD Toolbox           |
|  \\    /   O peration     | Version:  2212                                  |
|   \\  /    A nd           | Website:  www.openfoam.com                      |
|    \\/     M anipulation  |                                                 |
\*---------------------------------------------------------------------------*/
FoamFile
{
    version     2.0;
    format      ascii;
    arch        "LSB;label=32;scalar=64";
    class       volVectorField;
    location    "0.5";
    object      U;
}
// * * * * * * * * * * * * * * * * * * * * * * * * * * * * * * * * * * * * * //

dimensions      [0 1 -1 0 0 0 0];

internalField   nonuniform List<vector> 
44
(
(0.00613137 0 0)
(0.00524385 0 0)
(0.00422431 0 0)
(0.00309735 0 0)
(0.00189097 0 0)
(0.0006358 0 0)
(0.0185473 0 0)
(0.015864 0 0)
(0.0127807 0 0)
(0.00937174 0 0)
(0.00572185 0 0)
(0.00192392 0 0)
(0.0314272 0 0)
(0.0268854 0 0)
(0.0216638 0 0)
(0.0158879 0 0)
(0.0097013 0 0)
(0.00326217 0 0)
(0.0450944 0 0)
(0.0385888 0 0)
(0.031103 0 0)
(0.0228159 0 0)
(0.0139341 0 0)
(0.00468595 0 0)
(0.0598938 0 0)
(0.0512754 0 0)
(0.0413457 0 0)
(0.0303405 0 0)
(0.0185345 0 0)
(0.00623388 0 0)
(0.0762017 0 0)
(0.0652769 0 0)
(0.0526671 0 0)
(0.0386683 0 0)
(0.0236306 0 0)
(0.00794953 0 0)
(0.105512 0 0)
(0.0944387 0 0)
(0.0809677 0 0)
(0.0653809 0 0)
(0.0480373 0 0)
(0.0293718 0 0)
(0.00988376 0 0)
(0.0120979 0 0)
)
;

boundaryField
{
    movingWall
    {
        type            fixedValue;
        value           nonuniform List<vector> 0();
    }
    fixedWalls
    {
        type            noSlip;
    }
    frontAndBack
    {
        type            empty;
    }
    procBoundary2to1
    {
        type            processor;
        value           nonuniform List<vector> 8((0.00686628 0 0) (0.0207688 0 0) (0.0351854 0 0) (0.0504729 0 0) (0.0670099 0 0) (0.0852052 0 0) (0.0852052 0 0) (0.113985 0 0));
    }
    procBoundary2to5
    {
        type            processor;
        value           nonuniform List<vector> 8((0.128437 0 0) (0.115082 0 0) (0.0987822 0 0) (0.0798577 0 0) (0.0587328 0 0) (0.0359381 0 0) (0.0359381 0 0) (0.0146697 0 0));
    }
}


// ************************************************************************* //
