/*--------------------------------*- C++ -*----------------------------------*\
| =========                 |                                                 |
| \\      /  F ield         | OpenFOAM: The Open Source CFD Toolbox           |
|  \\    /   O peration     | Version:  2212                                  |
|   \\  /    A nd           | Website:  www.openfoam.com                      |
|    \\/     M anipulation  |                                                 |
\*---------------------------------------------------------------------------*/
FoamFile
{
    version     2.0;
    format      ascii;
    arch        "LSB;label=32;scalar=64";
    class       volVectorField;
    location    "0.3";
    object      U;
}
// * * * * * * * * * * * * * * * * * * * * * * * * * * * * * * * * * * * * * //

dimensions      [0 1 -1 0 0 0 0];

internalField   nonuniform List<vector> 
44
(
(0.127391 0 0)
(0.11415 0 0)
(0.0979881 0 0)
(0.07922 0 0)
(0.0582663 0 0)
(0.0356536 0 0)
(0.153446 0 0)
(0.137701 0 0)
(0.118395 0 0)
(0.0958708 0 0)
(0.0706124 0 0)
(0.0432542 0 0)
(0.0145693 0 0)
(0.183348 0 0)
(0.164865 0 0)
(0.142065 0 0)
(0.115292 0 0)
(0.085085 0 0)
(0.0521975 0 0)
(0.0175961 0 0)
(0.217831 0 0)
(0.196403 0 0)
(0.169753 0 0)
(0.138186 0 0)
(0.102265 0 0)
(0.0628714 0 0)
(0.0212192 0 0)
(0.257725 0 0)
(0.233216 0 0)
(0.202404 0 0)
(0.165471 0 0)
(0.122944 0 0)
(0.0758205 0 0)
(0.025634 0 0)
(0.303963 0 0)
(0.276387 0 0)
(0.241221 0 0)
(0.198387 0 0)
(0.148245 0 0)
(0.0918492 0 0)
(0.0311361 0 0)
(0.179826 0 0)
(0.11221 0 0)
(0.0382023 0 0)
)
;

boundaryField
{
    movingWall
    {
        type            fixedValue;
        value           nonuniform List<vector> 0();
    }
    fixedWalls
    {
        type            noSlip;
    }
    frontAndBack
    {
        type            empty;
    }
    procBoundary5to2
    {
        type            processor;
        value           nonuniform List<vector> 8((0.104544 0 0) (0.0935774 0 0) (0.080234 0 0) (0.0647918 0 0) (0.0476064 0 0) (0.0291091 0 0) (0.0120022 0 0) (0.0120022 0 0));
    }
    procBoundary5to4
    {
        type            processor;
        value           nonuniform List<vector> 6((0.137491 0 0) (0.165408 0 0) (0.197317 0 0) (0.233914 0 0) (0.275955 0 0) (0.324238 0 0));
    }
    procBoundary5to8
    {
        type            processor;
        value           nonuniform List<vector> 8((0.357571 0 0) (0.327205 0 0) (0.287752 0 0) (0.238648 0 0) (0.238648 0 0) (0.220231 0 0) (0.138979 0 0) (0.0476702 0 0));
    }
}


// ************************************************************************* //
