/*--------------------------------*- C++ -*----------------------------------*\
  =========                 |
  \\      /  F ield         | OpenFOAM: The Open Source CFD Toolbox
   \\    /   O peration     | Website:  https://openfoam.org
    \\  /    A nd           | Version:  8
     \\/     M anipulation  |
\*---------------------------------------------------------------------------*/
FoamFile
{
    version     2.0;
    format      ascii;
    class       volScalarField;
    location    "1";
    object      p;
}
// * * * * * * * * * * * * * * * * * * * * * * * * * * * * * * * * * * * * * //

dimensions      [0 2 -2 0 0 0 0];

internalField   nonuniform List<scalar> 
400
(
-0.0991845
-0.198177
-0.251326
-0.276705
-0.280339
-0.268123
-0.243181
-0.206101
-0.159527
-0.106451
-0.0491069
0.0103221
0.0690692
0.123992
0.172217
0.211696
0.241434
0.261419
0.27243
0.276092
-0.198565
-0.239041
-0.268571
-0.283721
-0.282706
-0.267851
-0.241507
-0.204367
-0.158619
-0.106617
-0.0501818
0.00866483
0.0671419
0.121974
0.170095
0.209283
0.238468
0.257578
0.266976
0.266623
-0.250265
-0.268475
-0.28028
-0.284683
-0.277353
-0.260003
-0.233931
-0.198832
-0.156252
-0.10797
-0.0551336
0.000795854
0.0572335
0.110676
0.157576
0.195285
0.22262
0.239725
0.247166
0.245414
-0.273274
-0.280773
-0.280778
-0.276583
-0.263956
-0.244827
-0.220077
-0.188578
-0.151247
-0.109248
-0.0628173
-0.0124753
0.0396901
0.0900419
0.13448
0.169795
0.194551
0.209017
0.214103
0.210849
-0.278102
-0.279133
-0.271685
-0.261091
-0.24413
-0.22358
-0.200492
-0.17317
-0.142045
-0.107961
-0.0703643
-0.0286003
0.0161622
0.06054
0.100153
0.131405
0.152628
0.164
0.166733
0.16226
-0.270415
-0.267709
-0.255799
-0.241117
-0.221178
-0.199799
-0.178698
-0.155807
-0.131054
-0.105486
-0.078348
-0.0478652
-0.0137982
0.0214148
0.0536916
0.07934
0.0964171
0.104713
0.105682
0.100935
-0.255842
-0.251905
-0.238334
-0.222288
-0.201317
-0.180026
-0.161232
-0.142819
-0.123723
-0.105642
-0.0887653
-0.070858
-0.0500053
-0.0268229
-0.00415848
0.014763
0.0277272
0.0337189
0.034135
0.0304142
-0.239711
-0.236869
-0.224575
-0.210362
-0.191052
-0.171327
-0.155376
-0.141986
-0.127932
-0.115253
-0.106409
-0.100116
-0.0930999
-0.0834112
-0.0715575
-0.0595077
-0.0496484
-0.0443153
-0.0428504
-0.0446024
-0.224453
-0.224966
-0.216959
-0.208281
-0.19451
-0.179168
-0.167218
-0.160774
-0.152997
-0.144374
-0.14024
-0.142174
-0.146782
-0.149486
-0.147589
-0.140957
-0.131927
-0.12472
-0.120542
-0.120531
-0.208296
-0.213856
-0.212817
-0.213494
-0.210384
-0.204602
-0.198726
-0.202529
-0.205414
-0.202818
-0.20155
-0.207459
-0.219053
-0.230181
-0.234876
-0.23032
-0.218458
-0.205876
-0.197166
-0.196748
-0.185102
-0.196247
-0.204707
-0.218475
-0.231794
-0.244166
-0.248137
-0.265502
-0.285374
-0.295038
-0.298968
-0.306691
-0.320378
-0.334326
-0.340414
-0.333179
-0.313721
-0.291042
-0.274706
-0.2745
-0.145704
-0.16229
-0.184379
-0.216193
-0.251012
-0.293121
-0.314467
-0.347654
-0.388596
-0.417624
-0.432781
-0.444101
-0.457348
-0.469221
-0.471575
-0.457151
-0.425365
-0.386569
-0.356048
-0.352017
-0.0812679
-0.104307
-0.148089
-0.207382
-0.266898
-0.347416
-0.398229
-0.450674
-0.51192
-0.562597
-0.594044
-0.612653
-0.625215
-0.631708
-0.62678
-0.603147
-0.556719
-0.495629
-0.43904
-0.418663
0.0129807
-0.0209453
-0.096549
-0.197971
-0.286032
-0.398643
-0.487343
-0.567396
-0.649554
-0.721329
-0.771686
-0.799422
-0.807405
-0.801389
-0.784321
-0.751909
-0.693507
-0.607718
-0.51015
-0.452793
0.138436
0.0835824
-0.0259604
-0.17499
-0.30349
-0.425994
-0.541667
-0.65815
-0.774413
-0.877972
-0.957486
-0.999897
-0.983745
-0.941501
-0.896672
-0.852306
-0.788398
-0.684932
-0.539684
-0.425767
0.302268
0.209212
0.0779311
-0.0842872
-0.265921
-0.397416
-0.527703
-0.689903
-0.875421
-1.05222
-1.18716
-1.24039
-1.18298
-1.05175
-0.917972
-0.826472
-0.753758
-0.651942
-0.480433
-0.310067
0.525148
0.382669
0.239207
0.116665
-0.0926785
-0.292273
-0.515504
-0.782952
-1.07177
-1.33373
-1.51633
-1.57702
-1.49666
-1.26398
-0.954946
-0.668988
-0.483286
-0.390251
-0.265408
-0.0888955
0.837344
0.690116
0.54348
0.366757
0.0752081
-0.269949
-0.665347
-1.06756
-1.41619
-1.6789
-1.8449
-1.90874
-1.85986
-1.6651
-1.27427
-0.695503
-0.132183
0.20008
0.247533
0.314931
1.45445
1.25541
0.951656
0.481938
-0.106531
-0.645521
-1.08645
-1.44589
-1.73084
-1.942
-2.0812
-2.14829
-2.13379
-2.00942
-1.71998
-1.17933
-0.310911
0.604519
1.10266
1.19927
2.09982
1.62293
0.830199
-0.00153236
-0.58501
-1.00278
-1.34185
-1.62775
-1.86073
-2.03862
-2.16129
-2.22746
-2.22862
-2.14434
-1.9416
-1.57534
-0.944665
0.126345
1.46157
2.18939
)
;

boundaryField
{
    movingWall
    {
        type            zeroGradient;
    }
    fixedWalls
    {
        type            zeroGradient;
    }
    frontAndBack
    {
        type            empty;
    }
}


// ************************************************************************* //
