/*--------------------------------*- C++ -*----------------------------------*\
  =========                 |
  \\      /  F ield         | OpenFOAM: The Open Source CFD Toolbox
   \\    /   O peration     | Website:  https://openfoam.org
    \\  /    A nd           | Version:  8
     \\/     M anipulation  |
\*---------------------------------------------------------------------------*/
FoamFile
{
    version     2.0;
    format      ascii;
    class       surfaceScalarField;
    location    "1";
    object      phi;
}
// * * * * * * * * * * * * * * * * * * * * * * * * * * * * * * * * * * * * * //

dimensions      [0 3 -1 0 0 0 0];

internalField   nonuniform List<scalar> 
760
(
6.3995e-08
-6.41583e-08
-1.3389e-07
1.97885e-07
-6.0138e-07
4.67494e-07
-1.24971e-06
6.4833e-07
-1.98611e-06
7.36402e-07
-2.72954e-06
7.43421e-07
-3.41108e-06
6.81542e-07
-3.97136e-06
5.60285e-07
-4.35871e-06
3.87346e-07
-4.53036e-06
1.71651e-07
-4.45709e-06
-7.32714e-08
-4.13019e-06
-3.26896e-07
-3.56881e-06
-5.61378e-07
-2.82512e-06
-7.43689e-07
-1.98456e-06
-8.4056e-07
-1.15885e-06
-8.25708e-07
-4.70581e-07
-6.88274e-07
-2.9823e-08
-4.40758e-07
1.02195e-07
-1.32015e-07
1.02199e-07
-1.96263e-07
1.32095e-07
-9.66074e-07
9.67704e-07
-2.25661e-06
1.75803e-06
-3.9058e-06
2.29752e-06
-5.72762e-06
2.55823e-06
-7.54335e-06
2.55915e-06
-9.19152e-06
2.32971e-06
-1.053e-05
1.89876e-06
-1.14376e-05
1.29492e-06
-1.18193e-05
5.53353e-07
-1.16163e-05
-2.76211e-07
-1.0819e-05
-1.12418e-06
-9.47938e-06
-1.90103e-06
-7.71849e-06
-2.50458e-06
-5.72419e-06
-2.83486e-06
-3.7342e-06
-2.81571e-06
-2.00249e-06
-2.41999e-06
-7.50114e-07
-1.69314e-06
-1.03261e-07
-7.78878e-07
-1.05797e-09
-5.06106e-07
6.38207e-07
-1.89223e-06
2.35383e-06
-3.96693e-06
3.83273e-06
-6.4898e-06
4.82039e-06
-9.20807e-06
5.2765e-06
-1.18796e-05
5.23071e-06
-1.42831e-05
4.73321e-06
-1.62223e-05
3.83792e-06
-1.75304e-05
2.60303e-06
-1.80786e-05
1.10153e-06
-1.77886e-05
-5.66158e-07
-1.66489e-05
-2.2639e-06
-1.47295e-05
-3.8205e-06
-1.21913e-05
-5.04276e-06
-9.28399e-06
-5.74214e-06
-6.32581e-06
-5.77389e-06
-3.66249e-06
-5.0833e-06
-1.60741e-06
-3.74822e-06
-3.71307e-07
-2.01498e-06
-3.72363e-07
-7.8938e-07
1.42759e-06
-2.76827e-06
4.33271e-06
-5.58716e-06
6.65163e-06
-8.9119e-06
8.14513e-06
-1.24271e-05
8.79174e-06
-1.58431e-05
8.64665e-06
-1.88983e-05
7.78846e-06
-2.13615e-05
6.30112e-06
-2.30354e-05
4.27688e-06
-2.37654e-05
1.83157e-06
-2.3454e-05
-8.77554e-07
-2.20782e-05
-3.63975e-06
-1.97078e-05
-6.19083e-06
-1.652e-05
-8.2306e-06
-1.28015e-05
-9.4606e-06
-8.93321e-06
-9.64221e-06
-5.34864e-06
-8.66787e-06
-2.46906e-06
-6.6278e-06
-6.26164e-07
-3.85788e-06
-9.98527e-07
-1.04175e-06
2.46934e-06
-3.56959e-06
6.86056e-06
-7.08254e-06
1.01646e-05
-1.11496e-05
1.22122e-05
-1.53954e-05
1.30376e-05
-1.94917e-05
1.27429e-05
-2.31498e-05
1.14465e-05
-2.61158e-05
9.26715e-06
-2.8171e-05
6.33201e-06
-2.9138e-05
2.79861e-06
-2.88948e-05
-1.12077e-06
-2.73935e-05
-5.14101e-06
-2.4684e-05
-8.90038e-06
-2.09361e-05
-1.19785e-05
-1.64543e-05
-1.39423e-05
-1.16736e-05
-1.44229e-05
-7.12421e-06
-1.32173e-05
-3.36244e-06
-1.03896e-05
-8.76999e-07
-6.34331e-06
-1.87553e-06
-1.2667e-06
3.73603e-06
-4.29393e-06
9.8878e-06
-8.44336e-06
1.4314e-05
-1.31923e-05
1.69611e-05
-1.81106e-05
1.79558e-05
-2.28397e-05
1.74721e-05
-2.70742e-05
1.5681e-05
-3.05475e-05
1.27404e-05
-3.3026e-05
8.81058e-06
-3.4311e-05
4.08357e-06
-3.42491e-05
-1.18267e-06
-3.27529e-05
-6.63723e-06
-2.98297e-05
-1.18235e-05
-2.56166e-05
-1.61916e-05
-2.04129e-05
-1.91461e-05
-1.46962e-05
-2.01395e-05
-9.10342e-06
-1.88101e-05
-4.3583e-06
-1.51347e-05
-1.15173e-06
-9.54988e-06
-3.02726e-06
-1.46656e-06
5.2026e-06
-4.94056e-06
1.33618e-05
-9.66047e-06
1.90339e-05
-1.50204e-05
2.2321e-05
-2.05432e-05
2.34787e-05
-2.585e-05
2.27789e-05
-3.0629e-05
2.046e-05
-3.46119e-05
1.67233e-05
-3.75583e-05
1.1757e-05
-3.92508e-05
5.776e-06
-3.95005e-05
-9.32968e-07
-3.81669e-05
-7.97081e-06
-3.51919e-05
-1.47985e-05
-3.06485e-05
-2.0735e-05
-2.47978e-05
-2.49967e-05
-1.81373e-05
-2.68001e-05
-1.14098e-05
-2.55376e-05
-5.54028e-06
-2.10042e-05
-1.48271e-06
-1.36075e-05
-4.50996e-06
-1.642e-06
6.8446e-06
-5.50649e-06
1.72263e-05
-1.07194e-05
2.42468e-05
-1.65996e-05
2.82012e-05
-2.26328e-05
2.9512e-05
-2.84311e-05
2.85772e-05
-3.36903e-05
2.57192e-05
-3.81539e-05
2.11869e-05
-4.15869e-05
1.519e-05
-4.37614e-05
7.95051e-06
-4.44551e-05
-2.39297e-07
-4.34662e-05
-8.95973e-06
-4.06499e-05
-1.76148e-05
-3.59798e-05
-2.54051e-05
-2.96326e-05
-3.1344e-05
-2.208e-05
-3.43526e-05
-1.41494e-05
-3.34682e-05
-6.99199e-06
-2.81616e-05
-1.90395e-06
-1.86955e-05
-6.41391e-06
-1.79379e-06
8.63839e-06
-5.9897e-06
2.14222e-05
-1.1604e-05
2.9861e-05
-1.78853e-05
3.44826e-05
-2.42923e-05
3.5919e-05
-3.04429e-05
3.47278e-05
-3.60576e-05
3.13338e-05
-4.09101e-05
2.60394e-05
-4.47894e-05
1.90694e-05
-4.7474e-05
1.0635e-05
-4.87194e-05
1.00616e-06
-4.82654e-05
-9.41379e-06
-4.58669e-05
-2.00132e-05
-4.13628e-05
-2.99092e-05
-3.47858e-05
-3.7921e-05
-2.65085e-05
-4.263e-05
-1.73834e-05
-4.25934e-05
-8.78775e-06
-3.67572e-05
-2.4511e-06
-2.50321e-05
-8.865e-06
-1.9272e-06
1.05656e-05
-6.39851e-06
2.58935e-05
-1.2309e-05
3.57715e-05
-1.88358e-05
4.10094e-05
-2.54219e-05
4.25051e-05
-3.17096e-05
4.10155e-05
-3.74665e-05
3.70907e-05
-4.25208e-05
3.10937e-05
-4.67109e-05
2.32595e-05
-4.98477e-05
1.37719e-05
-5.16901e-05
2.84852e-06
-5.19368e-05
-9.16711e-06
-5.02452e-05
-2.17048e-05
-4.62934e-05
-3.3861e-05
-3.99051e-05
-4.43093e-05
-3.12501e-05
-5.1285e-05
-2.10931e-05
-5.27504e-05
-1.09823e-05
-4.6868e-05
-3.16284e-06
-3.28516e-05
-1.20278e-05
-2.05925e-06
1.26248e-05
-6.76679e-06
3.06011e-05
-1.28585e-05
4.18632e-05
-1.94312e-05
4.75822e-05
-2.59272e-05
4.90011e-05
-3.20391e-05
4.71274e-05
-3.76103e-05
4.26619e-05
-4.25535e-05
3.60369e-05
-4.67883e-05
2.74943e-05
-5.01932e-05
1.71768e-05
-5.25683e-05
5.22361e-06
-5.3609e-05
-8.12632e-06
-5.29018e-05
-2.2412e-05
-4.99613e-05
-3.68015e-05
-4.43477e-05
-4.99228e-05
-3.59041e-05
-5.97285e-05
-2.51294e-05
-6.35251e-05
-1.35931e-05
-5.84044e-05
-4.08308e-06
-4.23616e-05
-1.61109e-05
-2.23022e-06
1.48551e-05
-7.17494e-06
3.55458e-05
-1.33278e-05
4.80161e-05
-1.96911e-05
5.39455e-05
-2.57337e-05
5.50437e-05
-3.12375e-05
5.26312e-05
-3.61595e-05
4.75839e-05
-4.05315e-05
4.04088e-05
-4.43892e-05
3.13519e-05
-4.77184e-05
2.0506e-05
-5.04081e-05
7.91331e-06
-5.22064e-05
-6.32796e-06
-5.26848e-05
-2.19337e-05
-5.12312e-05
-3.8255e-05
-4.71238e-05
-5.40303e-05
-3.97616e-05
-6.70908e-05
-2.91416e-05
-7.41451e-05
-1.65689e-05
-7.09771e-05
-5.26281e-06
-5.36676e-05
-2.13737e-05
-2.52241e-06
1.73775e-05
-7.7755e-06
4.07989e-05
-1.38586e-05
5.40992e-05
-1.96746e-05
5.97615e-05
-2.47758e-05
6.0145e-05
-2.90961e-05
5.69514e-05
-3.27559e-05
5.12437e-05
-3.59438e-05
4.35967e-05
-3.88438e-05
3.4252e-05
-4.15845e-05
2.32467e-05
-4.41914e-05
1.05202e-05
-4.65309e-05
-3.98847e-06
-4.82432e-05
-2.02214e-05
-4.86765e-05
-3.78217e-05
-4.68744e-05
-5.58324e-05
-4.17288e-05
-7.22364e-05
-3.24814e-05
-8.33925e-05
-1.97313e-05
-8.37271e-05
-6.75843e-06
-6.66405e-05
-2.81322e-05
-3.09004e-06
2.04675e-05
-8.81555e-06
4.65244e-05
-1.46422e-05
5.99258e-05
-1.94219e-05
6.45412e-05
-2.29125e-05
6.36356e-05
-2.52999e-05
5.93388e-05
-2.69318e-05
5.28756e-05
-2.81892e-05
4.48541e-05
-2.94249e-05
3.54877e-05
-3.0929e-05
2.47508e-05
-3.28948e-05
1.2486e-05
-3.53645e-05
-1.51881e-06
-3.8143e-05
-1.74429e-05
-4.06721e-05
-3.52925e-05
-4.19015e-05
-5.46031e-05
-4.02711e-05
-7.38668e-05
-3.40829e-05
-8.95806e-05
-2.26718e-05
-9.51383e-05
-8.61421e-06
-8.06981e-05
-3.67464e-05
-4.20031e-06
2.46678e-05
-1.06212e-05
5.29452e-05
-1.57957e-05
6.51004e-05
-1.87436e-05
6.74891e-05
-1.96712e-05
6.45632e-05
-1.91649e-05
5.88325e-05
-1.78691e-05
5.15798e-05
-1.63767e-05
4.33618e-05
-1.52035e-05
3.43144e-05
-1.47875e-05
2.43348e-05
-1.54847e-05
1.31832e-05
-1.75369e-05
5.33306e-07
-2.09892e-05
-1.39905e-05
-2.55324e-05
-3.07493e-05
-3.02556e-05
-4.988e-05
-3.33843e-05
-7.07381e-05
-3.23048e-05
-9.06601e-05
-2.45558e-05
-0.000102887
-1.07881e-05
-9.44658e-05
-4.75344e-05
-6.24669e-06
3.09145e-05
-1.34052e-05
6.01038e-05
-1.69239e-05
6.86191e-05
-1.66376e-05
6.72027e-05
-1.36275e-05
6.1553e-05
-9.05122e-06
5.42562e-05
-3.88348e-06
4.6412e-05
1.10236e-06
3.8376e-05
5.2868e-06
3.013e-05
8.14802e-06
2.14736e-05
9.22532e-06
1.21059e-05
8.11289e-06
1.64573e-06
4.50906e-06
-1.03866e-05
-1.64524e-06
-2.4595e-05
-9.86076e-06
-4.16644e-05
-1.85929e-05
-6.20059e-05
-2.47115e-05
-8.45416e-05
-2.37501e-05
-0.000103849
-1.29146e-05
-0.000105301
-6.0449e-05
-9.56145e-06
4.0476e-05
-1.64268e-05
6.69691e-05
-1.58215e-05
6.80138e-05
-9.88943e-06
6.12706e-05
-1.12556e-06
5.27892e-05
8.70453e-06
4.44261e-05
1.84208e-05
3.66958e-05
2.72261e-05
2.95706e-05
3.45437e-05
2.28124e-05
3.98986e-05
1.61187e-05
4.28407e-05
9.16375e-06
4.29019e-05
1.58454e-06
3.95942e-05
-7.07886e-06
3.2473e-05
-1.74739e-05
2.13818e-05
-3.05733e-05
7.05466e-06
-4.76788e-05
-7.76888e-06
-6.97181e-05
-1.72135e-05
-9.4404e-05
-1.37635e-05
-0.000108751
-7.42124e-05
-1.34309e-05
5.39069e-05
-1.50812e-05
6.86194e-05
-5.09735e-06
5.803e-05
9.81192e-06
4.63614e-05
2.58436e-05
3.67575e-05
4.12136e-05
2.90561e-05
5.50419e-05
2.28675e-05
6.68643e-05
1.77482e-05
7.63926e-05
1.32842e-05
8.33752e-05
9.13608e-06
8.75178e-05
5.02116e-06
8.84282e-05
6.74111e-07
8.5581e-05
-4.23166e-06
7.827e-05
-1.01629e-05
6.56665e-05
-1.79697e-05
4.71903e-05
-2.92026e-05
2.37956e-05
-4.63233e-05
7.11247e-07
-7.13197e-05
-1.02176e-05
-9.78225e-05
-8.44301e-05
-9.40962e-06
6.33165e-05
8.82278e-06
5.0387e-05
3.51836e-05
3.16692e-05
6.00402e-05
2.15047e-05
8.1489e-05
1.53088e-05
9.9459e-05
1.10861e-05
0.000114209
8.11759e-06
0.000126022
5.93461e-06
0.000135104
4.20242e-06
0.000141539
2.70165e-06
0.000145275
1.28493e-06
0.000146106
-1.57136e-07
0.000143641
-1.76691e-06
0.000137179
-3.70053e-06
0.000125548
-6.33852e-06
0.000106898
-1.05528e-05
7.90798e-05
-1.85051e-05
4.22946e-05
-3.45344e-05
6.89808e-06
-6.2426e-05
-7.7532e-05
6.33165e-05
0.000113703
0.000145373
0.000166877
0.000182186
0.000193272
0.00020139
0.000207324
0.000211527
0.000214229
0.000215513
0.000215356
0.000213589
0.000209889
0.00020355
0.000192998
0.000174492
0.000139958
7.7532e-05
)
;

boundaryField
{
    movingWall
    {
        type            calculated;
        value           uniform 0;
    }
    fixedWalls
    {
        type            calculated;
        value           uniform 0;
    }
    frontAndBack
    {
        type            empty;
        value           nonuniform List<scalar> 0();
    }
}


// ************************************************************************* //
