/*--------------------------------*- C++ -*----------------------------------*\
  =========                 |
  \\      /  F ield         | OpenFOAM: The Open Source CFD Toolbox
   \\    /   O peration     | Website:  https://openfoam.org
    \\  /    A nd           | Version:  8
     \\/     M anipulation  |
\*---------------------------------------------------------------------------*/
FoamFile
{
    version     2.0;
    format      ascii;
    class       volVectorField;
    location    "1";
    object      U;
}
// * * * * * * * * * * * * * * * * * * * * * * * * * * * * * * * * * * * * * //

dimensions      [0 1 -1 0 0 0 0];

internalField   nonuniform List<vector> 
400
(
(0.0012039 -0.00120787 0)
(0.000401563 0.000673015 0)
(-0.00645098 0.00286748 0)
(-0.0179681 0.00434056 0)
(-0.032174 0.00506935 0)
(-0.0472965 0.00518556 0)
(-0.0618304 0.00480608 0)
(-0.0744939 0.00400748 0)
(-0.0841731 0.00283748 0)
(-0.0899105 0.00134565 0)
(-0.0909637 -0.00038353 0)
(-0.0869272 -0.00220714 0)
(-0.0778839 -0.00391651 0)
(-0.06454 -0.0052529 0)
(-0.0482884 -0.00594617 0)
(-0.0311493 -0.00577344 0)
(-0.0155466 -0.00462887 0)
(-0.00390945 -0.00259441 0)
(0.00189186 -8.66902e-05 0)
(0.00157717 0.00152443 0)
(-0.000623158 -0.000512209 0)
(-0.0089635 0.00883949 0)
(-0.0300556 0.0184029 0)
(-0.0603839 0.024985 0)
(-0.0959789 0.0282383 0)
(-0.133167 0.028469 0)
(-0.168534 0.0260734 0)
(-0.19903 0.0213978 0)
(-0.222002 0.0147506 0)
(-0.235252 0.00649937 0)
(-0.237191 -0.00281655 0)
(-0.227079 -0.0124093 0)
(-0.205295 -0.0212349 0)
(-0.173561 -0.0280768 0)
(-0.135012 -0.0317277 0)
(-0.0940176 -0.0312538 0)
(-0.0556684 -0.0263048 0)
(-0.0249203 -0.0174126 0)
(-0.00569994 -0.00641511 0)
(0.000312493 0.00208287 0)
(-0.00307536 0.00649721 0)
(-0.0201051 0.0303306 0)
(-0.0555771 0.0520744 0)
(-0.102988 0.0669001 0)
(-0.156655 0.0739944 0)
(-0.211694 0.0737857 0)
(-0.263476 0.0670329 0)
(-0.307795 0.054531 0)
(-0.340986 0.0371099 0)
(-0.360043 0.0158039 0)
(-0.362831 -0.00794515 0)
(-0.348381 -0.0321533 0)
(-0.317222 -0.0543041 0)
(-0.27165 -0.0715496 0)
(-0.215822 -0.0811203 0)
(-0.155562 -0.0809186 0)
(-0.0977066 -0.0702127 0)
(-0.0490439 -0.050278 0)
(-0.0155791 -0.0250309 0)
(-0.00167171 -0.00260526 0)
(-0.00527187 0.0195496 0)
(-0.030568 0.0642335 0)
(-0.0798745 0.101423 0)
(-0.143249 0.125949 0)
(-0.213206 0.137015 0)
(-0.283888 0.135369 0)
(-0.349833 0.122249 0)
(-0.406083 0.099006 0)
(-0.448315 0.0671281 0)
(-0.472958 0.0284915 0)
(-0.477421 -0.0143412 0)
(-0.460416 -0.0579247 0)
(-0.422339 -0.0979501 0)
(-0.365623 -0.129559 0)
(-0.294934 -0.147998 0)
(-0.217087 -0.14958 0)
(-0.140411 -0.132842 0)
(-0.0736172 -0.0996009 0)
(-0.025339 -0.0557536 0)
(-0.00346087 -0.0125725 0)
(-0.00717282 0.0379673 0)
(-0.0400203 0.10953 0)
(-0.102243 0.165032 0)
(-0.180477 0.200197 0)
(-0.265428 0.214966 0)
(-0.350388 0.210798 0)
(-0.429298 0.189597 0)
(-0.496719 0.153367 0)
(-0.547901 0.104303 0)
(-0.57884 0.0451575 0)
(-0.586468 -0.0203518 0)
(-0.568993 -0.0872497 0)
(-0.526331 -0.14929 0)
(-0.460593 -0.199329 0)
(-0.3765 -0.230185 0)
(-0.281537 -0.23599 0)
(-0.185506 -0.213887 0)
(-0.0994099 -0.165644 0)
(-0.0352316 -0.098764 0)
(-0.00510995 -0.0275232 0)
(-0.00883591 0.0611573 0)
(-0.0484956 0.165315 0)
(-0.122542 0.241948 0)
(-0.214423 0.288665 0)
(-0.313147 0.306896 0)
(-0.411279 0.29928 0)
(-0.502358 0.26864 0)
(-0.580683 0.217723 0)
(-0.64126 0.149418 0)
(-0.679735 0.0672651 0)
(-0.692519 -0.023973 0)
(-0.677099 -0.117879 0)
(-0.632531 -0.206245 0)
(-0.560101 -0.279409 0)
(-0.464056 -0.327229 0)
(-0.352172 -0.340805 0)
(-0.235672 -0.314845 0)
(-0.128273 -0.250111 0)
(-0.0462042 -0.15519 0)
(-0.00687294 -0.0476242 0)
(-0.0103013 0.0885958 0)
(-0.0560382 0.230584 0)
(-0.140685 0.330986 0)
(-0.244798 0.390138 0)
(-0.355863 0.411687 0)
(-0.465883 0.39996 0)
(-0.568205 0.358978 0)
(-0.657092 0.292315 0)
(-0.727501 0.20348 0)
(-0.774854 0.096612 0)
(-0.795034 -0.0227476 0)
(-0.784633 -0.146995 0)
(-0.74148 -0.266096 0)
(-0.665479 -0.367733 0)
(-0.559728 -0.438238 0)
(-0.431672 -0.464601 0)
(-0.293643 -0.437606 0)
(-0.162367 -0.355512 0)
(-0.059411 -0.22712 0)
(-0.00904776 -0.0736631 0)
(-0.0115886 0.119787 0)
(-0.0626572 0.304246 0)
(-0.156535 0.43072 0)
(-0.27115 0.503033 0)
(-0.392653 0.527779 0)
(-0.512697 0.511511 0)
(-0.62469 0.459758 0)
(-0.723142 0.376999 0)
(-0.80323 0.267244 0)
(-0.860366 0.134947 0)
(-0.890024 -0.013976 0)
(-0.88785 -0.171182 0)
(-0.850165 -0.325175 0)
(-0.774926 -0.461056 0)
(-0.663235 -0.561171 0)
(-0.521217 -0.607183 0)
(-0.361511 -0.583977 0)
(-0.203763 -0.485013 0)
(-0.07608 -0.317683 0)
(-0.0119626 -0.107104 0)
(-0.0127182 0.154243 0)
(-0.0683803 0.385136 0)
(-0.169976 0.539464 0)
(-0.292939 0.625287 0)
(-0.422262 0.65293 0)
(-0.549493 0.631779 0)
(-0.668428 0.56921 0)
(-0.774191 0.470707 0)
(-0.862555 0.340643 0)
(-0.929284 0.183441 0)
(-0.969736 0.00486759 0)
(-0.978786 -0.186645 0)
(-0.951163 -0.378791 0)
(-0.882413 -0.554531 0)
(-0.770693 -0.692093 0)
(-0.619402 -0.766687 0)
(-0.43997 -0.754891 0)
(-0.254107 -0.64199 0)
(-0.0974717 -0.430946 0)
(-0.0159997 -0.150115 0)
(-0.013758 0.191514 0)
(-0.073398 0.472068 0)
(-0.181134 0.655245 0)
(-0.309803 0.754185 0)
(-0.443366 0.783901 0)
(-0.573586 0.757321 0)
(-0.695071 0.684083 0)
(-0.804022 0.570799 0)
(-0.897311 0.422087 0)
(-0.971577 0.241978 0)
(-1.02259 0.0354941 0)
(-1.04491 -0.189668 0)
(-1.03193 -0.42138 0)
(-0.976611 -0.641409 0)
(-0.873288 -0.824364 0)
(-0.720921 -0.938355 0)
(-0.527335 -0.949111 0)
(-0.314181 -0.829109 0)
(-0.124866 -0.571607 0)
(-0.0216467 -0.205618 0)
(-0.0149033 0.231347 0)
(-0.0783021 0.56402 0)
(-0.190731 0.775841 0)
(-0.321939 0.886216 0)
(-0.454953 0.916133 0)
(-0.582208 0.882962 0)
(-0.699694 0.799087 0)
(-0.805284 0.672415 0)
(-0.897552 0.507724 0)
(-0.974678 0.308338 0)
(-1.03359 0.0779458 0)
(-1.06931 -0.177407 0)
(-1.07459 -0.447051 0)
(-1.04015 -0.713119 0)
(-0.956043 -0.948025 0)
(-0.815059 -1.11319 0)
(-0.618211 -1.16146 0)
(-0.383212 -1.04684 0)
(-0.159512 -0.744401 0)
(-0.0295775 -0.277373 0)
(-0.0166134 0.274018 0)
(-0.0844433 0.660509 0)
(-0.200539 0.898895 0)
(-0.330502 1.0169 0)
(-0.456621 1.04341 0)
(-0.572772 1.00137 0)
(-0.677132 0.906419 0)
(-0.769961 0.767935 0)
(-0.852218 0.590805 0)
(-0.924346 0.377415 0)
(-0.985288 0.12965 0)
(-1.03159 -0.148959 0)
(-1.05654 -0.450628 0)
(-1.04964 -0.759953 0)
(-0.997055 -1.04972 0)
(-0.884224 -1.27676 0)
(-0.70181 -1.38067 0)
(-0.457734 -1.29122 0)
(-0.202453 -0.953017 0)
(-0.0407635 -0.370136 0)
(-0.0198518 0.320981 0)
(-0.0944488 0.762159 0)
(-0.213827 1.02197 0)
(-0.337757 1.1405 0)
(-0.448443 1.15743 0)
(-0.54259 1.10261 0)
(-0.621735 0.995402 0)
(-0.689384 0.846672 0)
(-0.749539 0.661339 0)
(-0.805544 0.440718 0)
(-0.859153 0.184628 0)
(-0.909542 -0.106512 0)
(-0.952067 -0.429083 0)
(-0.97683 -0.772494 0)
(-0.967666 -1.11353 0)
(-0.902905 -1.40874 0)
(-0.759998 -1.58719 0)
(-0.529816 -1.55075 0)
(-0.254009 -1.19815 0)
(-0.056594 -0.489847 0)
(-0.0265043 0.376008 0)
(-0.112905 0.871349 0)
(-0.235477 1.14223 0)
(-0.346293 1.24917 0)
(-0.429456 1.24696 0)
(-0.487026 1.17364 0)
(-0.525579 1.05229 0)
(-0.5528 0.894941 0)
(-0.576234 0.706286 0)
(-0.602457 0.486476 0)
(-0.636471 0.233266 0)
(-0.68091 -0.0561723 0)
(-0.734686 -0.383109 0)
(-0.790852 -0.743774 0)
(-0.83389 -1.12307 0)
(-0.837472 -1.48382 0)
(-0.765319 -1.7517 0)
(-0.584372 -1.80246 0)
(-0.312439 -1.47398 0)
(-0.0788524 -0.64356 0)
(-0.0400052 0.447072 0)
(-0.146907 0.992449 0)
(-0.270648 1.25494 0)
(-0.355535 1.33112 0)
(-0.392803 1.29645 0)
(-0.394155 1.19761 0)
(-0.373308 1.06033 0)
(-0.342885 0.896743 0)
(-0.314011 0.710641 0)
(-0.296222 0.500821 0)
(-0.297505 0.263214 0)
(-0.324039 -0.00780073 0)
(-0.379166 -0.318147 0)
(-0.461109 -0.671731 0)
(-0.558988 -1.065 0)
(-0.647037 -1.4748 0)
(-0.679083 -1.83561 0)
(-0.595041 -2.00822 0)
(-0.370529 -1.76256 0)
(-0.108914 -0.838471 0)
(-0.0657136 0.549474 0)
(-0.204744 1.13013 0)
(-0.318351 1.34902 0)
(-0.351048 1.3666 0)
(-0.313271 1.28369 0)
(-0.23243 1.15325 0)
(-0.130998 1.00058 0)
(-0.0262658 0.835618 0)
(0.0680875 0.65994 0)
(0.140864 0.470616 0)
(0.182378 0.262122 0)
(0.183932 0.0270542 0)
(0.138132 -0.243757 0)
(0.0404901 -0.560798 0)
(-0.10655 -0.933113 0)
(-0.28525 -1.35808 0)
(-0.449431 -1.79475 0)
(-0.517758 -2.11272 0)
(-0.407768 -2.02682 0)
(-0.144217 -1.08075 0)
(-0.10854 0.71212 0)
(-0.28606 1.28073 0)
(-0.348945 1.39354 0)
(-0.276095 1.31801 0)
(-0.119741 1.17509 0)
(0.0729678 1.01426 0)
(0.272899 0.853926 0)
(0.461258 0.698138 0)
(0.62493 0.54455 0)
(0.753826 0.388101 0)
(0.838993 0.222349 0)
(0.871403 0.0395007 0)
(0.841471 -0.170454 0)
(0.739361 -0.421204 0)
(0.557367 -0.731262 0)
(0.297828 -1.11996 0)
(-0.00899284 -1.58555 0)
(-0.281508 -2.04308 0)
(-0.376035 -2.20045 0)
(-0.167777 -1.37368 0)
(-0.155418 0.978416 0)
(-0.340071 1.40039 0)
(-0.237088 1.30639 0)
(0.0334838 1.11471 0)
(0.355061 0.92373 0)
(0.674832 0.754288 0)
(0.96982 0.60864 0)
(1.22813 0.481884 0)
(1.44295 0.367092 0)
(1.60934 0.257492 0)
(1.72217 0.146727 0)
(1.77481 0.0282378 0)
(1.75832 -0.106058 0)
(1.66049 -0.268163 0)
(1.46543 -0.478174 0)
(1.1569 -0.768842 0)
(0.731236 -1.18061 0)
(0.228198 -1.71328 0)
(-0.173244 -2.15938 0)
(-0.1189 -1.67492 0)
(-0.0475344 1.26944 0)
(-0.072012 1.31682 0)
(0.411489 0.968938 0)
(0.958257 0.709537 0)
(1.42957 0.529338 0)
(1.82321 0.398419 0)
(2.14931 0.30114 0)
(2.41423 0.226134 0)
(2.62274 0.164585 0)
(2.77786 0.110111 0)
(2.88009 0.0580037 0)
(2.92695 0.00428218 0)
(2.91274 -0.0552931 0)
(2.82697 -0.127352 0)
(2.65182 -0.224378 0)
(2.35839 -0.373273 0)
(1.90179 -0.630364 0)
(1.22454 -1.07917 0)
(0.452832 -1.68849 0)
(0.217498 -1.70174 0)
(1.43826 0.707196 0)
(1.8357 0.626574 0)
(2.56334 0.398276 0)
(3.13742 0.251665 0)
(3.51183 0.164255 0)
(3.76902 0.109429 0)
(3.95659 0.0740018 0)
(4.09496 0.0502376 0)
(4.1951 0.0331213 0)
(4.26347 0.0195227 0)
(4.30313 0.00749265 0)
(4.31461 -0.00430686 0)
(4.29605 -0.0169544 0)
(4.24268 -0.0321729 0)
(4.1447 -0.0531784 0)
(3.98096 -0.0879807 0)
(3.70224 -0.158353 0)
(3.17418 -0.316151 0)
(2.29941 -0.622733 0)
(1.66818 -0.779835 0)
)
;

boundaryField
{
    movingWall
    {
        type            fixedValue;
        value           uniform (5.07387 0 0);
    }
    fixedWalls
    {
        type            noSlip;
    }
    frontAndBack
    {
        type            empty;
    }
}


// ************************************************************************* //
