/*--------------------------------*- C++ -*----------------------------------*\
  =========                 |
  \\      /  F ield         | OpenFOAM: The Open Source CFD Toolbox
   \\    /   O peration     | Website:  https://openfoam.org
    \\  /    A nd           | Version:  9
     \\/     M anipulation  |
\*---------------------------------------------------------------------------*/
FoamFile
{
    format      ascii;
    class       volScalarField;
    location    "0.01";
    object      p;
}
// * * * * * * * * * * * * * * * * * * * * * * * * * * * * * * * * * * * * * //

dimensions      [0 2 -2 0 0 0 0];

internalField   nonuniform List<scalar> 
40
(
-0.00647333
-0.013482
-0.0179
-0.0208926
-0.0228976
-0.0124151
-0.0156287
-0.0184075
-0.0206107
-0.0218254
-0.0144776
-0.0159882
-0.017506
-0.0188656
-0.0194087
-0.0141471
-0.0147195
-0.0153587
-0.0160029
-0.0159214
-0.0123154
-0.0123287
-0.012422
-0.012516
-0.0119946
-0.00975679
-0.00948674
-0.0093904
-0.00928005
-0.00868985
-0.00716295
-0.00692777
-0.00691958
-0.00707265
-0.00700388
-0.00470403
-0.00421529
-0.00397574
-0.00482476
-0.00607151
)
;

boundaryField
{
    movingWall
    {
        type            zeroGradient;
    }
    fixedWalls
    {
        type            zeroGradient;
    }
    frontAndBack
    {
        type            empty;
    }
    procBoundary0to1
    {
        type            processor;
        value           nonuniform List<scalar> 5(-0.00354205 -0.00299327 -0.00228785 -0.00308955 -0.00139192);
    }
    procBoundary0to2
    {
        type            processor;
        value           nonuniform List<scalar> 8(-0.0211814 -0.0203598 -0.0181356 -0.0149364 -0.0113411 -0.00811917 -0.00581906 -0.00310381);
    }
}


// ************************************************************************* //
