/*--------------------------------*- C++ -*----------------------------------*\
  =========                 |
  \\      /  F ield         | OpenFOAM: The Open Source CFD Toolbox
   \\    /   O peration     | Website:  https://openfoam.org
    \\  /    A nd           | Version:  9
     \\/     M anipulation  |
\*---------------------------------------------------------------------------*/
FoamFile
{
    format      ascii;
    class       surfaceScalarField;
    location    "0.08";
    object      phi;
}
// * * * * * * * * * * * * * * * * * * * * * * * * * * * * * * * * * * * * * //

dimensions      [0 3 -1 0 0 0 0];

internalField   nonuniform List<scalar> 
67
(
-3.05448e-05
-7.96841e-05
-2.02966e-05
-8.53145e-05
-7.76728e-06
-7.32069e-05
-3.36006e-05
-2.91136e-05
-4.51976e-05
-3.11117e-05
-6.35455e-05
-2.94965e-05
-8.12992e-05
-2.22184e-05
-9.25927e-05
-9.78932e-06
-8.56359e-05
-4.339e-05
-1.18481e-05
-3.84432e-05
-1.88604e-05
-5.65331e-05
-2.34783e-05
-7.66814e-05
-2.19322e-05
-9.41388e-05
-1.18321e-05
-9.5736e-05
-5.52221e-05
1.57779e-05
-2.86718e-05
3.41078e-06
-4.4166e-05
-9.11489e-06
-6.41557e-05
-1.67124e-05
-8.65412e-05
-1.28767e-05
-9.95718e-05
-6.80988e-05
5.66024e-05
-1.69893e-05
3.98576e-05
-2.74213e-05
1.90265e-05
-4.33246e-05
-1.16639e-06
-6.63483e-05
-1.00559e-05
-9.06822e-05
-7.81547e-05
0.000114226
-5.90501e-06
9.67239e-05
-9.9191e-06
7.0933e-05
-1.75337e-05
3.72326e-05
-3.2648e-05
5.27482e-06
-5.87244e-05
-7.28799e-05
0.000191705
0.000181786
0.000164252
0.000131604
7.28799e-05
)
;

boundaryField
{
    movingWall
    {
        type            calculated;
        value           uniform 0;
    }
    fixedWalls
    {
        type            calculated;
        value           uniform 0;
    }
    frontAndBack
    {
        type            empty;
        value           nonuniform List<scalar> 0();
    }
    procBoundary9to6
    {
        type            processor;
        value           nonuniform List<scalar> 6(2.56636e-05 5.09374e-06 -2.55494e-05 -6.82848e-05 -0.00012531 -0.00019761);
    }
    procBoundary9to8
    {
        type            processor;
        value           nonuniform List<scalar> 7(7.38257e-05 7.50664e-05 6.06776e-05 2.58334e-05 4.86476e-05 3.64032e-05 6.55436e-05);
    }
}


// ************************************************************************* //
