/*--------------------------------*- C++ -*----------------------------------*\
  =========                 |
  \\      /  F ield         | OpenFOAM: The Open Source CFD Toolbox
   \\    /   O peration     | Website:  https://openfoam.org
    \\  /    A nd           | Version:  8
     \\/     M anipulation  |
\*---------------------------------------------------------------------------*/
FoamFile
{
    version     2.0;
    format      ascii;
    class       volScalarField;
    location    "40";
    object      epsilon;
}
// * * * * * * * * * * * * * * * * * * * * * * * * * * * * * * * * * * * * * //

dimensions      [0 2 -3 0 0 0 0];

internalField   nonuniform List<scalar> 
20
(
0.324495
0.229448
0.0610688
0.0296416
0.0187747
0.0122805
0.00937832
0.00880714
0.00931567
0.00870805
0.00869642
0.00929519
0.00878878
0.00936301
0.0122661
0.0187586
0.029621
0.0610229
0.229355
0.32458
)
;

boundaryField
{
    bottomWall
    {
        type            epsilonWallFunction;
        value           uniform 0.324495;
    }
    topWall
    {
        type            epsilonWallFunction;
        value           uniform 0.32458;
    }
    sides1_half0
    {
        type            empty;
    }
    sides1_half1
    {
        type            empty;
    }
    sides2_half0
    {
        type            empty;
    }
    sides2_half1
    {
        type            empty;
    }
    inout1_half0
    {
        type            empty;
    }
    inout1_half1
    {
        type            empty;
    }
    inout2_half0
    {
        type            empty;
    }
    inout2_half1
    {
        type            empty;
    }
}


// ************************************************************************* //
