/*--------------------------------*- C++ -*----------------------------------*\
  =========                 |
  \\      /  F ield         | OpenFOAM: The Open Source CFD Toolbox
   \\    /   O peration     | Website:  https://openfoam.org
    \\  /    A nd           | Version:  8
     \\/     M anipulation  |
\*---------------------------------------------------------------------------*/
FoamFile
{
    version     2.0;
    format      ascii;
    class       volVectorField;
    location    "40";
    object      UMean;
}
// * * * * * * * * * * * * * * * * * * * * * * * * * * * * * * * * * * * * * //

dimensions      [0 1 -1 0 0 0 0];

internalField   nonuniform List<vector> 
20
(
(2.73601 0 0)
(1.17912 0 0)
(0.907425 0 0)
(0.778164 0 0)
(0.681146 0 0)
(0.643073 0 0)
(0.650516 0 0)
(0.701421 0 0)
(0.803857 0 0)
(0.945996 0 0)
(0.946215 0 0)
(0.804316 0 0)
(0.702076 0 0)
(0.651415 0 0)
(0.644277 0 0)
(0.682672 0 0)
(0.779967 0 0)
(0.90939 0 0)
(1.18149 0 0)
(2.74032 0 0)
)
;

boundaryField
{
    bottomWall
    {
        type            calculated;
        value           uniform (0 0 0);
    }
    topWall
    {
        type            calculated;
        value           uniform (0 0 0);
    }
    sides1_half0
    {
        type            empty;
    }
    sides1_half1
    {
        type            empty;
    }
    sides2_half0
    {
        type            empty;
    }
    sides2_half1
    {
        type            empty;
    }
    inout1_half0
    {
        type            empty;
    }
    inout1_half1
    {
        type            empty;
    }
    inout2_half0
    {
        type            empty;
    }
    inout2_half1
    {
        type            empty;
    }
}


// ************************************************************************* //
