/*--------------------------------*- C++ -*----------------------------------*\
  =========                 |
  \\      /  F ield         | OpenFOAM: The Open Source CFD Toolbox
   \\    /   O peration     | Website:  https://openfoam.org
    \\  /    A nd           | Version:  8
     \\/     M anipulation  |
\*---------------------------------------------------------------------------*/
FoamFile
{
    version     2.0;
    format      ascii;
    class       volScalarField;
    location    "1";
    object      p;
}
// * * * * * * * * * * * * * * * * * * * * * * * * * * * * * * * * * * * * * //

dimensions      [0 2 -2 0 0 0 0];

internalField   nonuniform List<scalar> 
400
(
-0.0991367
-0.198081
-0.251204
-0.276568
-0.280196
-0.26798
-0.243043
-0.205971
-0.159409
-0.106347
-0.0490182
0.0103949
0.0691264
0.124035
0.172247
0.211716
0.241448
0.261428
0.272436
0.276098
-0.198469
-0.238926
-0.268441
-0.283581
-0.282562
-0.267708
-0.24137
-0.204238
-0.158501
-0.106513
-0.0500929
0.00873807
0.0671995
0.122018
0.170125
0.209304
0.238482
0.257588
0.266985
0.266634
-0.250144
-0.268345
-0.280143
-0.284541
-0.277211
-0.259863
-0.233796
-0.198706
-0.156135
-0.107866
-0.0550435
0.000871053
0.0572936
0.110722
0.15761
0.19531
0.22264
0.239743
0.247183
0.245433
-0.27314
-0.280635
-0.280638
-0.276442
-0.263818
-0.244692
-0.219947
-0.188455
-0.151133
-0.109144
-0.062725
-0.0123963
0.0397551
0.0900938
0.134521
0.169829
0.194581
0.209046
0.214135
0.210883
-0.277962
-0.278993
-0.271546
-0.260955
-0.243999
-0.223452
-0.20037
-0.173052
-0.141934
-0.107857
-0.0702693
-0.028516
0.016235
0.0606019
0.100207
0.131454
0.152675
0.164049
0.166786
0.162318
-0.270276
-0.26757
-0.255664
-0.240987
-0.221053
-0.19968
-0.178582
-0.155695
-0.130946
-0.105381
-0.0782486
-0.0477727
-0.0137135
0.021492
0.0537636
0.0794103
0.0964893
0.104789
0.105764
0.101023
-0.255706
-0.25177
-0.238204
-0.222163
-0.201198
-0.179912
-0.161121
-0.142709
-0.123614
-0.105534
-0.0886585
-0.0707533
-0.0499035
-0.0267239
-0.00406056
0.0148627
0.0278316
0.0338301
0.0342532
0.0305374
-0.239581
-0.236739
-0.224449
-0.21024
-0.190935
-0.171214
-0.155264
-0.141873
-0.127818
-0.115136
-0.106289
-0.0999938
-0.0929745
-0.083283
-0.0714258
-0.059371
-0.0495051
-0.0441643
-0.0426922
-0.0444395
-0.224329
-0.224841
-0.216835
-0.208159
-0.194389
-0.179049
-0.167097
-0.160649
-0.152867
-0.144239
-0.140098
-0.142024
-0.146624
-0.14932
-0.147415
-0.140776
-0.131738
-0.124525
-0.120341
-0.120325
-0.208182
-0.213738
-0.212696
-0.213369
-0.210255
-0.204468
-0.198588
-0.202381
-0.205255
-0.202651
-0.201372
-0.207269
-0.218849
-0.229963
-0.234647
-0.230083
-0.218217
-0.205632
-0.196919
-0.196496
-0.185004
-0.196141
-0.204592
-0.218349
-0.231655
-0.244013
-0.247972
-0.26532
-0.285173
-0.294821
-0.298736
-0.306442
-0.32011
-0.33404
-0.340113
-0.332871
-0.313415
-0.290741
-0.274408
-0.274197
-0.145631
-0.162207
-0.184279
-0.216071
-0.250864
-0.292945
-0.314269
-0.347429
-0.38834
-0.417341
-0.432475
-0.443772
-0.456995
-0.468845
-0.471183
-0.456754
-0.424978
-0.386198
-0.355691
-0.351659
-0.0812343
-0.104259
-0.148014
-0.20727
-0.266746
-0.347217
-0.397991
-0.450396
-0.5116
-0.562237
-0.593649
-0.612224
-0.624755
-0.631223
-0.626279
-0.602645
-0.556233
-0.495175
-0.438619
-0.418253
0.0129573
-0.0209489
-0.0965102
-0.197875
-0.28588
-0.398426
-0.487068
-0.567066
-0.649168
-0.720888
-0.771194
-0.798883
-0.806828
-0.800789
-0.78371
-0.7513
-0.692921
-0.607178
-0.50967
-0.452351
0.138336
0.0835114
-0.0259726
-0.174922
-0.303346
-0.425775
-0.541375
-0.657786
-0.773974
-0.877459
-0.9569
-0.999239
-0.983049
-0.940802
-0.895982
-0.851628
-0.787743
-0.68433
-0.539169
-0.425328
0.302067
0.209057
0.0778487
-0.0842774
-0.265811
-0.397223
-0.527428
-0.689535
-0.874944
-1.05162
-1.18645
-1.23958
-1.18215
-1.05096
-0.91726
-0.825812
-0.753128
-0.651355
-0.479939
-0.309684
0.524816
0.382407
0.239027
0.116569
-0.0926611
-0.292149
-0.515259
-0.782558
-1.0712
-1.33298
-1.51542
-1.57601
-1.49563
-1.26304
-0.954189
-0.668418
-0.482835
-0.389835
-0.265041
-0.0886346
0.836843
0.689692
0.543138
0.366512
0.0751174
-0.269862
-0.665051
-1.06703
-1.41544
-1.67794
-1.84379
-1.90753
-1.85862
-1.66393
-1.2733
-0.694884
-0.131932
0.200115
0.247558
0.314931
1.45362
1.25469
0.951101
0.48161
-0.106564
-0.645259
-1.08593
-1.44514
-1.72989
-1.94087
-2.07994
-2.14694
-2.1324
-2.00806
-1.71877
-1.17843
-0.310515
0.604322
1.10213
1.19871
2.09864
1.62201
0.829675
-0.0016248
-0.584784
-1.00231
-1.34117
-1.62687
-1.85968
-2.03742
-2.15997
-2.22605
-2.22716
-2.14291
-1.94028
-1.57422
-0.94391
0.126459
1.46086
2.18821
)
;

boundaryField
{
    movingWall
    {
        type            zeroGradient;
    }
    fixedWalls
    {
        type            zeroGradient;
    }
    frontAndBack
    {
        type            empty;
    }
}


// ************************************************************************* //
