/*--------------------------------*- C++ -*----------------------------------*\
  =========                 |
  \\      /  F ield         | OpenFOAM: The Open Source CFD Toolbox
   \\    /   O peration     | Website:  https://openfoam.org
    \\  /    A nd           | Version:  8
     \\/     M anipulation  |
\*---------------------------------------------------------------------------*/
FoamFile
{
    version     2.0;
    format      ascii;
    class       surfaceScalarField;
    location    "1";
    object      phi;
}
// * * * * * * * * * * * * * * * * * * * * * * * * * * * * * * * * * * * * * //

dimensions      [0 3 -1 0 0 0 0];

internalField   nonuniform List<scalar> 
760
(
6.40699e-08
-6.40414e-08
-1.33792e-07
1.97863e-07
-6.01142e-07
4.67352e-07
-1.24926e-06
6.48119e-07
-1.98542e-06
7.36158e-07
-2.72859e-06
7.43169e-07
-3.40989e-06
6.81304e-07
-3.96997e-06
5.6008e-07
-4.35717e-06
3.87195e-07
-4.52874e-06
1.71574e-07
-4.45549e-06
-7.32568e-08
-4.1287e-06
-3.26781e-07
-3.56754e-06
-5.61167e-07
-2.82413e-06
-7.43404e-07
-1.9839e-06
-8.40238e-07
-1.1585e-06
-8.254e-07
-4.70468e-07
-6.88031e-07
-2.98479e-08
-4.40621e-07
1.02148e-07
-1.31993e-07
1.02151e-07
-1.96137e-07
1.32087e-07
-9.65668e-07
9.67402e-07
-2.25576e-06
1.75745e-06
-3.90439e-06
2.29675e-06
-5.72559e-06
2.55736e-06
-7.54069e-06
2.55827e-06
-9.18828e-06
2.32889e-06
-1.05263e-05
1.89806e-06
-1.14335e-05
1.29442e-06
-1.1815e-05
5.53112e-07
-1.16121e-05
-2.76143e-07
-1.08151e-05
-1.12378e-06
-9.47599e-06
-1.90032e-06
-7.71577e-06
-2.50363e-06
-5.72222e-06
-2.83378e-06
-3.73296e-06
-2.81466e-06
-2.00188e-06
-2.41912e-06
-7.49922e-07
-1.69258e-06
-1.03253e-07
-7.78671e-07
-1.09893e-09
-5.05892e-07
6.37984e-07
-1.8915e-06
2.35301e-06
-3.96546e-06
3.83141e-06
-6.48745e-06
4.81874e-06
-9.20479e-06
5.27469e-06
-1.18754e-05
5.2289e-06
-1.42781e-05
4.73154e-06
-1.62165e-05
3.83652e-06
-1.75241e-05
2.60203e-06
-1.80721e-05
1.10105e-06
-1.77822e-05
-5.66017e-07
-1.66429e-05
-2.2631e-06
-1.47241e-05
-3.81908e-06
-1.21869e-05
-5.04085e-06
-9.28072e-06
-5.73996e-06
-6.32365e-06
-5.77173e-06
-3.6613e-06
-5.08147e-06
-1.60693e-06
-3.74696e-06
-3.71215e-07
-2.01439e-06
-3.72312e-07
-7.89071e-07
1.42706e-06
-2.76723e-06
4.33117e-06
-5.58512e-06
6.6493e-06
-8.9087e-06
8.14232e-06
-1.24227e-05
8.78871e-06
-1.58374e-05
8.64364e-06
-1.88916e-05
7.78568e-06
-2.13539e-05
6.2988e-06
-2.30271e-05
4.27522e-06
-2.37568e-05
1.83076e-06
-2.34454e-05
-8.7736e-07
-2.207e-05
-3.63849e-06
-1.97006e-05
-6.18855e-06
-1.65139e-05
-8.22749e-06
-1.27969e-05
-9.457e-06
-8.93004e-06
-9.63858e-06
-5.34681e-06
-8.6647e-06
-2.46827e-06
-6.6255e-06
-6.25985e-07
-3.85667e-06
-9.98297e-07
-1.04135e-06
2.46841e-06
-3.56828e-06
6.85809e-06
-7.07998e-06
1.0161e-05
-1.11456e-05
1.2208e-05
-1.539e-05
1.3033e-05
-1.94848e-05
1.27385e-05
-2.31416e-05
1.14424e-05
-2.61065e-05
9.2637e-06
-2.81608e-05
6.32952e-06
-2.91273e-05
2.79734e-06
-2.88841e-05
-1.1206e-06
-2.73833e-05
-5.13929e-06
-2.46747e-05
-8.89714e-06
-2.09282e-05
-1.1974e-05
-1.64482e-05
-1.3937e-05
-1.16693e-05
-1.44175e-05
-7.12166e-06
-1.32123e-05
-3.36129e-06
-1.03859e-05
-8.76728e-07
-6.34123e-06
-1.87503e-06
-1.26622e-06
3.73463e-06
-4.29238e-06
9.88424e-06
-8.44036e-06
1.4309e-05
-1.31876e-05
1.69553e-05
-1.81042e-05
1.79496e-05
-2.28317e-05
1.7466e-05
-2.70646e-05
1.56753e-05
-3.05366e-05
1.27356e-05
-3.30141e-05
8.80703e-06
-3.42984e-05
4.08163e-06
-3.42363e-05
-1.18269e-06
-3.27404e-05
-6.63513e-06
-2.98183e-05
-1.18193e-05
-2.56067e-05
-1.61856e-05
-2.04049e-05
-1.91388e-05
-1.46906e-05
-2.01318e-05
-9.1e-06
-1.8803e-05
-4.35672e-06
-1.51291e-05
-1.15135e-06
-9.54661e-06
-3.02637e-06
-1.46603e-06
5.20066e-06
-4.93882e-06
1.3357e-05
-9.65713e-06
1.90273e-05
-1.50152e-05
2.23134e-05
-2.05362e-05
2.34706e-05
-2.58411e-05
2.27709e-05
-3.06183e-05
2.04525e-05
-3.45996e-05
1.6717e-05
-3.75448e-05
1.17522e-05
-3.92363e-05
5.77315e-06
-3.94856e-05
-9.33395e-07
-3.81522e-05
-7.96851e-06
-3.51781e-05
-1.47934e-05
-3.06363e-05
-2.07274e-05
-2.47879e-05
-2.49872e-05
-1.813e-05
-2.67896e-05
-1.14053e-05
-2.55277e-05
-5.53816e-06
-2.09963e-05
-1.48218e-06
-1.36026e-05
-4.50855e-06
-1.64143e-06
6.84209e-06
-5.50464e-06
1.72203e-05
-1.07158e-05
2.42385e-05
-1.65941e-05
2.81916e-05
-2.26253e-05
2.95019e-05
-2.84216e-05
2.85672e-05
-3.36789e-05
2.57098e-05
-3.81407e-05
2.11787e-05
-4.15721e-05
1.51836e-05
-4.37454e-05
7.94645e-06
-4.44383e-05
-2.40449e-07
-4.34493e-05
-8.95753e-06
-4.06337e-05
-1.7609e-05
-3.59652e-05
-2.53959e-05
-2.96203e-05
-3.1332e-05
-2.20708e-05
-3.43392e-05
-1.41435e-05
-3.3455e-05
-6.98914e-06
-2.81506e-05
-1.90322e-06
-1.86885e-05
-6.41177e-06
-1.79321e-06
8.6353e-06
-5.98782e-06
2.14149e-05
-1.16003e-05
2.9851e-05
-1.78797e-05
3.4471e-05
-2.42847e-05
3.59069e-05
-3.04332e-05
3.47156e-05
-3.60458e-05
3.13224e-05
-4.08963e-05
2.60293e-05
-4.47739e-05
1.90612e-05
-4.74569e-05
1.06295e-05
-4.87012e-05
1.00392e-06
-4.82467e-05
-9.41208e-06
-4.58486e-05
-2.00071e-05
-4.13458e-05
-2.98987e-05
-3.47711e-05
-3.79067e-05
-2.64971e-05
-4.26132e-05
-1.73758e-05
-4.25762e-05
-8.78398e-06
-3.67425e-05
-2.45009e-06
-2.50224e-05
-8.86185e-06
-1.92664e-06
1.05619e-05
-6.39668e-06
2.58849e-05
-1.23054e-05
3.57598e-05
-1.88304e-05
4.0996e-05
-2.54145e-05
4.24909e-05
-3.17001e-05
4.10013e-05
-3.74549e-05
3.70771e-05
-4.25071e-05
3.10815e-05
-4.66952e-05
2.32493e-05
-4.98303e-05
1.37645e-05
-5.16712e-05
2.84484e-06
-5.1917e-05
-9.16633e-06
-5.02253e-05
-2.16989e-05
-4.62743e-05
-3.38497e-05
-3.98881e-05
-4.42929e-05
-3.12364e-05
-5.12649e-05
-2.10836e-05
-5.2729e-05
-1.09773e-05
-4.68487e-05
-3.16146e-06
-3.28383e-05
-1.20233e-05
-2.05873e-06
1.26207e-05
-6.76509e-06
3.05913e-05
-1.28552e-05
4.18499e-05
-1.94262e-05
4.75669e-05
-2.59203e-05
4.8985e-05
-3.20303e-05
4.71112e-05
-3.75995e-05
4.26464e-05
-4.25407e-05
3.60226e-05
-4.67734e-05
2.74821e-05
-5.01764e-05
1.71675e-05
-5.25498e-05
5.21819e-06
-5.35892e-05
-8.1269e-06
-5.28812e-05
-2.24069e-05
-4.99409e-05
-3.679e-05
-4.43288e-05
-4.99051e-05
-3.58882e-05
-5.97055e-05
-2.51179e-05
-6.34992e-05
-1.35868e-05
-5.83799e-05
-4.0812e-06
-4.23439e-05
-1.61045e-05
-2.22975e-06
1.48504e-05
-7.17342e-06
3.55349e-05
-1.33249e-05
4.80014e-05
-1.96867e-05
5.39287e-05
-2.57277e-05
5.5026e-05
-3.12298e-05
5.26134e-05
-3.61501e-05
4.75666e-05
-4.05203e-05
4.03929e-05
-4.43762e-05
3.1338e-05
-4.77035e-05
2.04949e-05
-5.03914e-05
7.90607e-06
-5.21881e-05
-6.33021e-06
-5.26651e-05
-2.19299e-05
-5.1211e-05
-3.82441e-05
-4.71041e-05
-5.40119e-05
-3.97441e-05
-6.70655e-05
-2.91282e-05
-7.41151e-05
-1.6561e-05
-7.09471e-05
-5.26029e-06
-5.36446e-05
-2.13648e-05
-2.52198e-06
1.73724e-05
-7.77411e-06
4.07871e-05
-1.38561e-05
5.40833e-05
-1.96708e-05
5.97435e-05
-2.47708e-05
6.0126e-05
-2.90898e-05
5.69324e-05
-3.27484e-05
5.12252e-05
-3.5935e-05
4.35795e-05
-3.88336e-05
3.42366e-05
-4.15728e-05
2.32341e-05
-4.41781e-05
1.05113e-05
-4.65158e-05
-3.99245e-06
-4.82265e-05
-2.02192e-05
-4.86584e-05
-3.78122e-05
-4.68557e-05
-5.58146e-05
-4.17111e-05
-7.22101e-05
-3.24667e-05
-8.33595e-05
-1.97219e-05
-8.36919e-05
-6.75512e-06
-6.66114e-05
-2.81199e-05
-3.08956e-06
2.0462e-05
-8.81414e-06
4.65117e-05
-1.46398e-05
5.9909e-05
-1.94186e-05
6.45223e-05
-2.29085e-05
6.36159e-05
-2.52952e-05
5.93192e-05
-2.69266e-05
5.28565e-05
-2.81834e-05
4.48363e-05
-2.94184e-05
3.54716e-05
-3.09216e-05
2.47373e-05
-3.28863e-05
1.2476e-05
-3.53546e-05
-1.52423e-06
-3.81313e-05
-1.74425e-05
-4.06586e-05
-3.52849e-05
-4.18862e-05
-5.4587e-05
-4.02551e-05
-7.38413e-05
-3.40683e-05
-8.95463e-05
-2.26613e-05
-9.50988e-05
-8.60998e-06
-8.06627e-05
-3.67299e-05
-4.1996e-06
2.46616e-05
-1.06193e-05
5.29314e-05
-1.5793e-05
6.50827e-05
-1.87405e-05
6.74697e-05
-1.9668e-05
6.45434e-05
-1.91618e-05
5.8813e-05
-1.78663e-05
5.1561e-05
-1.63744e-05
4.33443e-05
-1.52015e-05
3.42987e-05
-1.47856e-05
2.43214e-05
-1.54826e-05
1.3173e-05
-1.7534e-05
5.27144e-07
-2.0985e-05
-1.39915e-05
-2.5526e-05
-3.07438e-05
-3.02466e-05
-4.98665e-05
-3.33727e-05
-7.07151e-05
-3.22921e-05
-9.06269e-05
-2.4545e-05
-0.000102846
-1.07829e-05
-9.44249e-05
-4.75128e-05
-6.24536e-06
3.09069e-05
-1.34024e-05
6.00884e-05
-1.69204e-05
6.86006e-05
-1.66342e-05
6.71835e-05
-1.36248e-05
6.1534e-05
-9.04976e-06
5.4238e-05
-3.88354e-06
4.63948e-05
1.10066e-06
3.83601e-05
5.28351e-06
3.01158e-05
8.14336e-06
2.14616e-05
9.21972e-06
1.20966e-05
8.10701e-06
1.63985e-06
4.50382e-06
-1.03883e-05
-1.64867e-06
-2.45913e-05
-9.86108e-06
-4.16541e-05
-1.85891e-05
-6.19871e-05
-2.47038e-05
-8.45123e-05
-2.3741e-05
-0.000103809
-1.29088e-05
-0.000105257
-6.04217e-05
-9.55887e-06
4.04658e-05
-1.64221e-05
6.69516e-05
-1.58166e-05
6.79952e-05
-9.88579e-06
6.12527e-05
-1.12411e-06
5.27724e-05
8.70322e-06
4.44106e-05
1.84164e-05
3.66816e-05
2.72186e-05
2.95579e-05
3.45331e-05
2.28013e-05
3.98853e-05
1.61094e-05
4.28253e-05
9.15663e-06
4.28851e-05
1.58003e-06
3.95771e-05
-7.08023e-06
3.24572e-05
-1.74714e-05
2.13691e-05
-3.0566e-05
7.04708e-06
-4.7665e-05
-7.76992e-06
-6.96953e-05
-1.7209e-05
-9.43695e-05
-1.37583e-05
-0.000108708
-7.418e-05
-1.34263e-05
5.38921e-05
-1.50749e-05
6.86002e-05
-5.09296e-06
5.80132e-05
9.81266e-06
4.6347e-05
2.58399e-05
3.67451e-05
4.12052e-05
2.90454e-05
5.50287e-05
2.28582e-05
6.68465e-05
1.77401e-05
7.63705e-05
1.32774e-05
8.33493e-05
9.13055e-06
8.74889e-05
5.01707e-06
8.83972e-05
6.71668e-07
8.55492e-05
-4.2322e-06
7.8239e-05
-1.01612e-05
6.56382e-05
-1.79653e-05
4.71676e-05
-2.91944e-05
2.37813e-05
-4.6309e-05
7.07032e-07
-7.12952e-05
-1.02154e-05
-9.77853e-05
-8.43953e-05
-9.40443e-06
6.32965e-05
8.82395e-06
5.03718e-05
3.51776e-05
3.16596e-05
6.00271e-05
2.14976e-05
8.1469e-05
1.53032e-05
9.94328e-05
1.10816e-05
0.000114177
8.11396e-06
0.000125985
5.93166e-06
0.000135063
4.20007e-06
0.000141493
2.69988e-06
0.000145227
1.28375e-06
0.000146056
-1.5773e-07
0.000143591
-1.76674e-06
0.000137129
-3.69959e-06
0.0001255
-6.33665e-06
0.000106856
-1.05497e-05
7.90463e-05
-1.84996e-05
4.22741e-05
-3.45231e-05
6.89241e-06
-6.24036e-05
-7.75029e-05
6.32965e-05
0.000113668
0.000145328
0.000166826
0.000182129
0.00019321
0.000201324
0.000207256
0.000211456
0.000214156
0.00021544
0.000215282
0.000213515
0.000209816
0.000203479
0.000192929
0.00017443
0.000139907
7.75029e-05
)
;

boundaryField
{
    movingWall
    {
        type            calculated;
        value           uniform 0;
    }
    fixedWalls
    {
        type            calculated;
        value           uniform 0;
    }
    frontAndBack
    {
        type            empty;
        value           nonuniform List<scalar> 0();
    }
}


// ************************************************************************* //
