/*--------------------------------*- C++ -*----------------------------------*\
  =========                 |
  \\      /  F ield         | OpenFOAM: The Open Source CFD Toolbox
   \\    /   O peration     | Website:  https://openfoam.org
    \\  /    A nd           | Version:  8
     \\/     M anipulation  |
\*---------------------------------------------------------------------------*/
FoamFile
{
    version     2.0;
    format      ascii;
    class       volVectorField;
    location    "1";
    object      U;
}
// * * * * * * * * * * * * * * * * * * * * * * * * * * * * * * * * * * * * * //

dimensions      [0 1 -1 0 0 0 0];

internalField   nonuniform List<vector> 
400
(
(0.00120456 -0.00120662 0)
(0.000402931 0.000673424 0)
(-0.0064486 0.00286702 0)
(-0.0179632 0.00433962 0)
(-0.0321658 0.00506817 0)
(-0.0472847 0.00518432 0)
(-0.061815 0.00480487 0)
(-0.0744752 0.00400641 0)
(-0.0841518 0.00283666 0)
(-0.0898875 0.00134519 0)
(-0.0909403 -0.000383523 0)
(-0.0869047 -0.0022066 0)
(-0.0778638 -0.00391546 0)
(-0.0645235 -0.00525145 0)
(-0.0482765 -0.00594453 0)
(-0.031142 -0.00577189 0)
(-0.0155435 -0.00462772 0)
(-0.00390914 -0.00259389 0)
(0.00189103 -8.68342e-05 0)
(0.0015767 0.00152397 0)
(-0.000622355 -0.000510707 0)
(-0.00895999 0.00883824 0)
(-0.0300469 0.0183988 0)
(-0.0603678 0.0249791 0)
(-0.0959541 0.0282316 0)
(-0.133133 0.028462 0)
(-0.168492 0.0260669 0)
(-0.19898 0.0213922 0)
(-0.221945 0.0147465 0)
(-0.235191 0.00649729 0)
(-0.23713 -0.00281613 0)
(-0.22702 -0.0124062 0)
(-0.205242 -0.0212292 0)
(-0.173517 -0.0280691 0)
(-0.134978 -0.031719 0)
(-0.0939948 -0.0312455 0)
(-0.0556557 -0.0262981 0)
(-0.0249153 -0.0174086 0)
(-0.00569924 -0.00641413 0)
(0.000312218 0.00208198 0)
(-0.00307422 0.00649606 0)
(-0.0200991 0.0303234 0)
(-0.0555619 0.0520618 0)
(-0.102961 0.0668838 0)
(-0.156614 0.0739764 0)
(-0.211639 0.0737674 0)
(-0.263409 0.067016 0)
(-0.307716 0.0545167 0)
(-0.340898 0.0370997 0)
(-0.35995 0.015799 0)
(-0.362737 -0.00794374 0)
(-0.34829 -0.0321451 0)
(-0.317139 -0.0542895 0)
(-0.271579 -0.0715301 0)
(-0.215767 -0.0810982 0)
(-0.155523 -0.080897 0)
(-0.0976832 -0.0701947 0)
(-0.0490329 -0.0502661 0)
(-0.0155761 -0.0250259 0)
(-0.00167157 -0.00260546 0)
(-0.00527029 0.0195445 0)
(-0.0305595 0.0642172 0)
(-0.0798531 0.101398 0)
(-0.143211 0.125918 0)
(-0.213151 0.136981 0)
(-0.283815 0.135335 0)
(-0.349744 0.122218 0)
(-0.405979 0.0989799 0)
(-0.448199 0.0671095 0)
(-0.472835 0.0284826 0)
(-0.477296 -0.0143387 0)
(-0.460294 -0.0579101 0)
(-0.422227 -0.097924 0)
(-0.365526 -0.129524 0)
(-0.294857 -0.147957 0)
(-0.217031 -0.149539 0)
(-0.140376 -0.132808 0)
(-0.0735997 -0.0995765 0)
(-0.0253335 -0.0557414 0)
(-0.00346033 -0.0125708 0)
(-0.00717077 0.0379571 0)
(-0.0400095 0.109501 0)
(-0.102217 0.16499 0)
(-0.18043 0.200147 0)
(-0.265361 0.214913 0)
(-0.350299 0.210745 0)
(-0.429188 0.189548 0)
(-0.496591 0.153326 0)
(-0.547759 0.104274 0)
(-0.578688 0.0451429 0)
(-0.586313 -0.020349 0)
(-0.56884 -0.0872282 0)
(-0.526189 -0.14925 0)
(-0.460469 -0.199275 0)
(-0.376398 -0.230122 0)
(-0.281461 -0.235926 0)
(-0.185457 -0.21383 0)
(-0.0993849 -0.165602 0)
(-0.0352234 -0.0987414 0)
(-0.00510902 -0.0275183 0)
(-0.00883344 0.0611407 0)
(-0.0484827 0.165272 0)
(-0.12251 0.241887 0)
(-0.214368 0.288593 0)
(-0.313068 0.30682 0)
(-0.411175 0.299205 0)
(-0.502231 0.268571 0)
(-0.580535 0.217664 0)
(-0.641094 0.149375 0)
(-0.679556 0.0672426 0)
(-0.692334 -0.0239714 0)
(-0.676915 -0.117851 0)
(-0.632357 -0.206192 0)
(-0.559945 -0.279334 0)
(-0.463926 -0.327139 0)
(-0.352074 -0.340712 0)
(-0.235608 -0.31476 0)
(-0.128239 -0.250046 0)
(-0.0461928 -0.155153 0)
(-0.00687154 -0.0476147 0)
(-0.0102985 0.0885719 0)
(-0.0560238 0.230524 0)
(-0.140649 0.330903 0)
(-0.244738 0.390042 0)
(-0.355775 0.411585 0)
(-0.465768 0.399859 0)
(-0.568063 0.358884 0)
(-0.656926 0.292235 0)
(-0.727314 0.20342 0)
(-0.774651 0.0965784 0)
(-0.794821 -0.0227499 0)
(-0.784418 -0.146962 0)
(-0.741273 -0.266028 0)
(-0.66529 -0.367635 0)
(-0.559567 -0.438118 0)
(-0.431547 -0.464472 0)
(-0.293558 -0.437486 0)
(-0.162321 -0.355417 0)
(-0.0593952 -0.227063 0)
(-0.0090457 -0.0736472 0)
(-0.0115856 0.119756 0)
(-0.0626418 0.304168 0)
(-0.156498 0.430613 0)
(-0.271085 0.502909 0)
(-0.39256 0.527648 0)
(-0.512575 0.511382 0)
(-0.624539 0.459638 0)
(-0.722963 0.376895 0)
(-0.803026 0.267164 0)
(-0.860143 0.134898 0)
(-0.889786 -0.0139863 0)
(-0.887605 -0.171149 0)
(-0.849924 -0.325096 0)
(-0.774701 -0.460934 0)
(-0.663039 -0.561017 0)
(-0.52106 -0.607013 0)
(-0.361402 -0.583812 0)
(-0.203702 -0.484879 0)
(-0.0760583 -0.3176 0)
(-0.0119596 -0.107079 0)
(-0.0127152 0.154203 0)
(-0.0683646 0.38504 0)
(-0.169938 0.539332 0)
(-0.292873 0.625135 0)
(-0.422167 0.652769 0)
(-0.549367 0.63162 0)
(-0.668273 0.569061 0)
(-0.774006 0.470575 0)
(-0.862342 0.340539 0)
(-0.929047 0.183373 0)
(-0.969481 0.00484449 0)
(-0.978518 -0.186616 0)
(-0.950893 -0.378705 0)
(-0.882155 -0.554388 0)
(-0.770461 -0.691904 0)
(-0.619211 -0.76647 0)
(-0.439833 -0.754674 0)
(-0.254028 -0.641807 0)
(-0.0974421 -0.430828 0)
(-0.0159952 -0.150078 0)
(-0.0137551 0.191465 0)
(-0.0733829 0.471953 0)
(-0.181097 0.655088 0)
(-0.309739 0.754005 0)
(-0.443274 0.78371 0)
(-0.573464 0.757131 0)
(-0.694918 0.683903 0)
(-0.80384 0.570638 0)
(-0.897099 0.421955 0)
(-0.971338 0.241886 0)
(-1.02233 0.0354528 0)
(-1.04463 -0.189649 0)
(-1.03164 -0.421291 0)
(-0.976326 -0.64125 0)
(-0.873024 -0.824142 0)
(-0.720695 -0.93809 0)
(-0.527165 -0.948835 0)
(-0.314079 -0.828867 0)
(-0.124826 -0.571445 0)
(-0.0216401 -0.205564 0)
(-0.0149006 0.231291 0)
(-0.0782881 0.563887 0)
(-0.190696 0.775661 0)
(-0.32188 0.886009 0)
(-0.454867 0.915914 0)
(-0.582095 0.882743 0)
(-0.699553 0.798878 0)
(-0.805113 0.672225 0)
(-0.897352 0.507563 0)
(-0.97445 0.308219 0)
(-1.03333 0.0778815 0)
(-1.06903 -0.177404 0)
(-1.0743 -0.446969 0)
(-1.03985 -0.712952 0)
(-0.955756 -0.947776 0)
(-0.814803 -1.11287 0)
(-0.61801 -1.16112 0)
(-0.383084 -1.04653 0)
(-0.159458 -0.744181 0)
(-0.0295678 -0.277296 0)
(-0.016611 0.273955 0)
(-0.0844307 0.66036 0)
(-0.200508 0.898693 0)
(-0.33045 1.01667 0)
(-0.456546 1.04317 0)
(-0.572673 1.00112 0)
(-0.677009 0.906182 0)
(-0.769813 0.767717 0)
(-0.852044 0.590616 0)
(-0.924145 0.377269 0)
(-0.98506 0.12956 0)
(-1.03133 -0.148978 0)
(-1.05627 -0.45056 0)
(-1.04935 -0.759788 0)
(-0.996764 -1.04945 0)
(-0.883952 -1.27641 0)
(-0.701583 -1.38026 0)
(-0.45758 -1.29083 0)
(-0.202382 -0.952726 0)
(-0.0407493 -0.370027 0)
(-0.0198495 0.320911 0)
(-0.0944372 0.761995 0)
(-0.213799 1.02175 0)
(-0.337712 1.14025 0)
(-0.448379 1.15716 0)
(-0.542509 1.10234 0)
(-0.621636 0.995143 0)
(-0.689267 0.846431 0)
(-0.749403 0.661126 0)
(-0.805387 0.440546 0)
(-0.858974 0.184512 0)
(-0.909338 -0.106556 0)
(-0.951838 -0.429037 0)
(-0.976578 -0.772343 0)
(-0.967398 -1.11326 0)
(-0.902639 -1.40837 0)
(-0.759759 -1.58673 0)
(-0.529639 -1.55028 0)
(-0.253919 -1.19777 0)
(-0.0565734 -0.489696 0)
(-0.0265014 0.375932 0)
(-0.112892 0.871172 0)
(-0.23545 1.142 0)
(-0.346252 1.24891 0)
(-0.429403 1.24668 0)
(-0.486964 1.17336 0)
(-0.525508 1.05202 0)
(-0.552721 0.894685 0)
(-0.576146 0.706058 0)
(-0.602358 0.486286 0)
(-0.636359 0.233128 0)
(-0.680779 -0.0562406 0)
(-0.734532 -0.383089 0)
(-0.790671 -0.743648 0)
(-0.833682 -1.12282 0)
(-0.837244 -1.48344 0)
(-0.765092 -1.7512 0)
(-0.584184 -1.80192 0)
(-0.31233 -1.47352 0)
(-0.0788232 -0.643355 0)
(-0.0400001 0.446988 0)
(-0.146889 0.992258 0)
(-0.270616 1.25469 0)
(-0.355493 1.33085 0)
(-0.392756 1.29617 0)
(-0.394109 1.19733 0)
(-0.373266 1.06005 0)
(-0.342849 0.896485 0)
(-0.31398 0.710409 0)
(-0.296194 0.500625 0)
(-0.297477 0.263065 0)
(-0.324005 -0.00788632 0)
(-0.379117 -0.318152 0)
(-0.461035 -0.671636 0)
(-0.55888 -1.06479 0)
(-0.646889 -1.47445 0)
(-0.678905 -1.83511 0)
(-0.594864 -2.00763 0)
(-0.370405 -1.76201 0)
(-0.108874 -0.838198 0)
(-0.0657032 0.549376 0)
(-0.204713 1.12992 0)
(-0.318303 1.34876 0)
(-0.350996 1.36632 0)
(-0.313226 1.28341 0)
(-0.2324 1.15297 0)
(-0.130987 1.00032 0)
(-0.0262785 0.835374 0)
(0.0680511 0.65972 0)
(0.140806 0.470429 0)
(0.182302 0.261978 0)
(0.183846 0.026964 0)
(0.138048 -0.243778 0)
(0.040423 -0.560733 0)
(-0.106582 -0.93294 0)
(-0.285229 -1.35777 0)
(-0.449348 -1.79428 0)
(-0.517629 -2.11212 0)
(-0.407645 -2.02619 0)
(-0.144169 -1.0804 0)
(-0.108519 0.711994 0)
(-0.286004 1.28049 0)
(-0.348872 1.39327 0)
(-0.27603 1.31773 0)
(-0.119702 1.17483 0)
(0.07297 1.01401 0)
(0.272859 0.853694 0)
(0.461172 0.697927 0)
(0.624799 0.544362 0)
(0.753654 0.387943 0)
(0.838785 0.222226 0)
(0.871168 0.039422 0)
(0.841223 -0.170479 0)
(0.739119 -0.421163 0)
(0.557155 -0.731137 0)
(0.297674 -1.11973 0)
(-0.00906035 -1.58516 0)
(-0.281479 -2.04252 0)
(-0.375945 -2.19979 0)
(-0.167729 -1.37324 0)
(-0.155379 0.978233 0)
(-0.339982 1.40013 0)
(-0.237004 1.30613 0)
(0.0335247 1.11447 0)
(0.355041 0.923513 0)
(0.674746 0.754093 0)
(0.969665 0.608466 0)
(1.22791 0.481731 0)
(1.44266 0.36696 0)
(1.60899 0.257382 0)
(1.72178 0.146645 0)
(1.77438 0.0281854 0)
(1.75787 -0.106074 0)
(1.66003 -0.268137 0)
(1.46499 -0.478094 0)
(1.15652 -0.76869 0)
(0.730958 -1.18035 0)
(0.228059 -1.71285 0)
(-0.173243 -2.15878 0)
(-0.118882 -1.67441 0)
(-0.0474984 1.26917 0)
(-0.0719507 1.31655 0)
(0.411462 0.968731 0)
(0.958121 0.709373 0)
(1.42934 0.529204 0)
(1.82288 0.398308 0)
(2.14889 0.301047 0)
(2.41373 0.226056 0)
(2.62217 0.164521 0)
(2.77724 0.110061 0)
(2.87941 0.0579681 0)
(2.92624 0.00426265 0)
(2.91201 -0.0552951 0)
(2.82624 -0.127334 0)
(2.65112 -0.224336 0)
(2.35774 -0.3732 0)
(1.90124 -0.630232 0)
(1.22414 -1.07892 0)
(0.452644 -1.68805 0)
(0.217403 -1.70127 0)
(1.43792 0.70703 0)
(1.83529 0.626426 0)
(2.56278 0.398176 0)
(3.13673 0.251597 0)
(3.51104 0.164205 0)
(3.76816 0.109393 0)
(3.95567 0.073975 0)
(4.09399 0.0502175 0)
(4.1941 0.0331064 0)
(4.26243 0.0195122 0)
(4.30208 0.00748642 0)
(4.31355 -0.00430853 0)
(4.29498 -0.0169518 0)
(4.24162 -0.0321654 0)
(4.14366 -0.0531656 0)
(3.97996 -0.0879614 0)
(3.70129 -0.158323 0)
(3.17334 -0.316089 0)
(2.29879 -0.622591 0)
(1.66773 -0.779639 0)
)
;

boundaryField
{
    movingWall
    {
        type            fixedValue;
        value           uniform (5.07261 0 0);
    }
    fixedWalls
    {
        type            noSlip;
    }
    frontAndBack
    {
        type            empty;
    }
}


// ************************************************************************* //
