/*--------------------------------*- C++ -*----------------------------------*\
  =========                 |
  \\      /  F ield         | OpenFOAM: The Open Source CFD Toolbox
   \\    /   O peration     | Website:  https://openfoam.org
    \\  /    A nd           | Version:  9
     \\/     M anipulation  |
\*---------------------------------------------------------------------------*/
FoamFile
{
    format      ascii;
    class       surfaceScalarField;
    location    "0.075";
    object      phi;
}
// * * * * * * * * * * * * * * * * * * * * * * * * * * * * * * * * * * * * * //

dimensions      [0 3 -1 0 0 0 0];

internalField   nonuniform List<scalar> 
67
(
-1.99573e-05
6.02642e-05
-2.11493e-05
5.65143e-05
-2.09993e-05
5.0594e-05
-2.00592e-05
4.3417e-05
3.54754e-05
-1.70598e-05
6.02585e-05
-1.46895e-05
5.41439e-05
-1.10008e-05
4.69053e-05
-6.82623e-06
3.92424e-05
-2.81044e-06
3.14596e-05
5.90773e-07
2.36093e-05
1.56302e-05
-8.8157e-06
5.49407e-05
-1.24001e-06
4.65682e-05
7.03537e-06
3.863e-05
1.50422e-05
3.12355e-05
2.2142e-05
2.43599e-05
2.78871e-05
1.78642e-05
1.15461e-05
1.18436e-05
4.14784e-05
2.58679e-05
3.2544e-05
3.89794e-05
2.55185e-05
5.04637e-05
1.97512e-05
5.99743e-05
1.48493e-05
6.73291e-05
1.05095e-05
6.48493e-06
5.84825e-05
1.92414e-05
7.73833e-05
1.36432e-05
9.29804e-05
9.92136e-06
0.000105488
7.24382e-06
0.000115174
5.16328e-06
0.000122224
3.45902e-06
1.95546e-06
0.000156869
0.000170512
0.000180434
0.000187677
0.000192841
0.0001963
)
;

boundaryField
{
    movingWall
    {
        type            calculated;
        value           uniform 0;
    }
    fixedWalls
    {
        type            calculated;
        value           nonuniform List<scalar> 0();
    }
    frontAndBack
    {
        type            empty;
        value           nonuniform List<scalar> 0();
    }
    procBoundary4to1
    {
        type            processor;
        value           nonuniform List<scalar> 6(1.69041e-05 1.70656e-05 1.41335e-05 1.61868e-06 -3.62455e-05 -0.000137628);
    }
    procBoundary4to3
    {
        type            processor;
        value           nonuniform List<scalar> 8(-5.72111e-05 -5.53223e-05 -5.0744e-05 -4.43571e-05 -3.67037e-05 -1.8831e-05 -2.70105e-05 -1.80142e-05);
    }
    procBoundary4to6
    {
        type            processor;
        value           nonuniform List<scalar> 5(2.9748e-06 3.19711e-05 7.23902e-05 0.000126754 0.000198255);
    }
}


// ************************************************************************* //
