/*--------------------------------*- C++ -*----------------------------------*\
  =========                 |
  \\      /  F ield         | OpenFOAM: The Open Source CFD Toolbox
   \\    /   O peration     | Website:  https://openfoam.org
    \\  /    A nd           | Version:  8
     \\/     M anipulation  |
\*---------------------------------------------------------------------------*/
FoamFile
{
    version     2.0;
    format      ascii;
    class       volScalarField;
    location    "1";
    object      p;
}
// * * * * * * * * * * * * * * * * * * * * * * * * * * * * * * * * * * * * * //

dimensions      [0 2 -2 0 0 0 0];

internalField   nonuniform List<scalar> 
400
(
-0.0991986
-0.198205
-0.251363
-0.276747
-0.280384
-0.26817
-0.24323
-0.206149
-0.159575
-0.106498
-0.0491513
0.0102798
0.0690293
0.123954
0.172181
0.211661
0.241401
0.261386
0.272397
0.276059
-0.198593
-0.239075
-0.26861
-0.283765
-0.282752
-0.267898
-0.241556
-0.204416
-0.158666
-0.106664
-0.0502264
0.00862236
0.0671017
0.121936
0.170059
0.209248
0.238434
0.257545
0.266943
0.26659
-0.250301
-0.268513
-0.280322
-0.284726
-0.277399
-0.26005
-0.233979
-0.19888
-0.156299
-0.108016
-0.0551787
0.00075276
0.0571927
0.110637
0.157539
0.195249
0.222585
0.23969
0.247131
0.245378
-0.273314
-0.280814
-0.28082
-0.276626
-0.264001
-0.244873
-0.220124
-0.188625
-0.151295
-0.109295
-0.0628631
-0.0125194
0.039648
0.0900018
0.134442
0.169757
0.194514
0.208979
0.214065
0.21081
-0.278143
-0.279176
-0.271727
-0.261135
-0.244174
-0.223624
-0.200538
-0.173216
-0.142092
-0.108008
-0.0704109
-0.0286457
0.0161184
0.0604978
0.100112
0.131364
0.152587
0.163958
0.166689
0.162216
-0.270457
-0.267751
-0.255841
-0.241159
-0.22122
-0.199843
-0.178742
-0.155852
-0.131101
-0.105533
-0.0783956
-0.0479125
-0.0138446
0.0213692
0.0536464
0.0792945
0.0963705
0.104664
0.105632
0.100884
-0.255884
-0.251946
-0.238376
-0.222329
-0.201358
-0.180068
-0.161276
-0.142864
-0.123769
-0.10569
-0.0888146
-0.0709079
-0.0500554
-0.0268732
-0.00420938
0.0147109
0.0276734
0.0336628
0.0340767
0.0303544
-0.239752
-0.23691
-0.224616
-0.210403
-0.191094
-0.171369
-0.15542
-0.142032
-0.127981
-0.115303
-0.106461
-0.10017
-0.0931553
-0.0834681
-0.0716161
-0.0595682
-0.0497111
-0.0443807
-0.0429182
-0.0446717
-0.224492
-0.225006
-0.217
-0.208324
-0.194553
-0.179213
-0.167264
-0.160823
-0.153049
-0.144429
-0.140297
-0.142234
-0.146845
-0.149552
-0.147658
-0.141029
-0.132
-0.124796
-0.12062
-0.120611
-0.208333
-0.213895
-0.212858
-0.213538
-0.21043
-0.20465
-0.198778
-0.202585
-0.205473
-0.202881
-0.201616
-0.207528
-0.219127
-0.230259
-0.234958
-0.230404
-0.218545
-0.205964
-0.197256
-0.19684
-0.185136
-0.196283
-0.204746
-0.218519
-0.231843
-0.24422
-0.248196
-0.265566
-0.285444
-0.295113
-0.299047
-0.306775
-0.320467
-0.334421
-0.340513
-0.333281
-0.313825
-0.291146
-0.27481
-0.274605
-0.145732
-0.162321
-0.184416
-0.216237
-0.251063
-0.293182
-0.314535
-0.34773
-0.38868
-0.417715
-0.432878
-0.444205
-0.457459
-0.469338
-0.471698
-0.457276
-0.425491
-0.386691
-0.356166
-0.352137
-0.0812854
-0.104329
-0.148119
-0.207423
-0.266951
-0.347483
-0.398308
-0.450764
-0.512021
-0.562709
-0.594165
-0.612781
-0.625351
-0.631853
-0.626931
-0.603301
-0.55687
-0.495773
-0.439176
-0.418796
0.0129783
-0.0209535
-0.0965696
-0.198008
-0.286086
-0.398715
-0.487432
-0.567501
-0.649674
-0.721464
-0.771833
-0.799579
-0.807571
-0.801563
-0.7845
-0.75209
-0.693684
-0.607885
-0.510302
-0.452935
0.138454
0.0835925
-0.0259673
-0.175019
-0.303543
-0.426069
-0.541762
-0.658266
-0.774549
-0.878129
-0.957661
-1.00009
-0.983942
-0.941699
-0.89687
-0.852504
-0.788592
-0.685115
-0.539845
-0.425908
0.302313
0.209245
0.0779424
-0.0843026
-0.265965
-0.397485
-0.527795
-0.690022
-0.875569
-1.0524
-1.18737
-1.24062
-1.18322
-1.05197
-0.918177
-0.826663
-0.753943
-0.65212
-0.480589
-0.310194
0.525229
0.382731
0.239243
0.116676
-0.0926998
-0.292323
-0.515587
-0.783075
-1.07194
-1.33394
-1.51658
-1.57731
-1.49696
-1.26425
-0.955169
-0.669158
-0.483422
-0.390381
-0.265529
-0.0889888
0.837468
0.69022
0.54356
0.36681
0.0752184
-0.269987
-0.66544
-1.06772
-1.41641
-1.67917
-1.84522
-1.90909
-1.86021
-1.66544
-1.27456
-0.695694
-0.13227
0.200054
0.247509
0.314912
1.45467
1.25559
0.951794
0.482016
-0.106531
-0.645602
-1.08661
-1.44611
-1.73111
-1.94232
-2.08156
-2.14868
-2.13419
-2.00981
-1.72033
-1.17961
-0.311046
0.604553
1.10279
1.19941
2.10013
1.62317
0.830333
-0.00151842
-0.585083
-1.00292
-1.34205
-1.628
-1.86102
-2.03896
-2.16167
-2.22786
-2.22903
-2.14475
-1.94198
-1.57567
-0.944894
0.126293
1.46175
2.1897
)
;

boundaryField
{
    movingWall
    {
        type            zeroGradient;
    }
    fixedWalls
    {
        type            zeroGradient;
    }
    frontAndBack
    {
        type            empty;
    }
}


// ************************************************************************* //
