/*--------------------------------*- C++ -*----------------------------------*\
  =========                 |
  \\      /  F ield         | OpenFOAM: The Open Source CFD Toolbox
   \\    /   O peration     | Website:  https://openfoam.org
    \\  /    A nd           | Version:  8
     \\/     M anipulation  |
\*---------------------------------------------------------------------------*/
FoamFile
{
    version     2.0;
    format      ascii;
    class       surfaceScalarField;
    location    "1";
    object      phi;
}
// * * * * * * * * * * * * * * * * * * * * * * * * * * * * * * * * * * * * * //

dimensions      [0 3 -1 0 0 0 0];

internalField   nonuniform List<scalar> 
760
(
6.40935e-08
-6.40652e-08
-1.33853e-07
1.97948e-07
-6.01392e-07
4.67542e-07
-1.24977e-06
6.48376e-07
-1.98622e-06
7.36447e-07
-2.72968e-06
7.43465e-07
-3.41126e-06
6.81582e-07
-3.97158e-06
5.60319e-07
-4.35895e-06
3.87371e-07
-4.53062e-06
1.71664e-07
-4.45734e-06
-7.3273e-08
-4.13043e-06
-3.26914e-07
-3.56902e-06
-5.61411e-07
-2.82528e-06
-7.43735e-07
-1.98467e-06
-8.40612e-07
-1.15891e-06
-8.25759e-07
-4.70601e-07
-6.88314e-07
-2.98194e-08
-4.40782e-07
1.02204e-07
-1.32021e-07
1.02207e-07
-1.96225e-07
1.32151e-07
-9.66081e-07
9.67812e-07
-2.2567e-06
1.75816e-06
-3.90599e-06
2.29767e-06
-5.72792e-06
2.55838e-06
-7.54376e-06
2.5593e-06
-9.19202e-06
2.32985e-06
-1.05306e-05
1.89887e-06
-1.14382e-05
1.295e-06
-1.18199e-05
5.53394e-07
-1.1617e-05
-2.7622e-07
-1.08197e-05
-1.12424e-06
-9.47993e-06
-1.90114e-06
-7.71893e-06
-2.50473e-06
-5.72451e-06
-2.83503e-06
-3.73439e-06
-2.81588e-06
-2.00259e-06
-2.42013e-06
-7.50145e-07
-1.69323e-06
-1.03261e-07
-7.78913e-07
-1.05188e-09
-5.06115e-07
6.38272e-07
-1.89231e-06
2.354e-06
-3.96712e-06
3.83298e-06
-6.49014e-06
4.82068e-06
-9.20857e-06
5.27681e-06
-1.18803e-05
5.23102e-06
-1.42839e-05
4.73349e-06
-1.62232e-05
3.83815e-06
-1.75314e-05
2.6032e-06
-1.80796e-05
1.10161e-06
-1.77897e-05
-5.66179e-07
-1.66499e-05
-2.26403e-06
-1.47303e-05
-3.82072e-06
-1.2192e-05
-5.04306e-06
-9.2845e-06
-5.74249e-06
-6.32615e-06
-5.77423e-06
-3.66268e-06
-5.0836e-06
-1.60748e-06
-3.74842e-06
-3.71321e-07
-2.01508e-06
-3.72372e-07
-7.89419e-07
1.4277e-06
-2.76841e-06
4.333e-06
-5.58746e-06
6.65203e-06
-8.91239e-06
8.1456e-06
-1.24278e-05
8.79224e-06
-1.58439e-05
8.64714e-06
-1.88994e-05
7.7889e-06
-2.13627e-05
6.30149e-06
-2.30367e-05
4.27715e-06
-2.37667e-05
1.8317e-06
-2.34553e-05
-8.77585e-07
-2.20794e-05
-3.63995e-06
-1.97089e-05
-6.19119e-06
-1.65209e-05
-8.23109e-06
-1.28022e-05
-9.46117e-06
-8.93369e-06
-9.64278e-06
-5.34891e-06
-8.66837e-06
-2.46918e-06
-6.62816e-06
-6.26191e-07
-3.85807e-06
-9.98563e-07
-1.04181e-06
2.4695e-06
-3.56979e-06
6.86098e-06
-7.08293e-06
1.01652e-05
-1.11502e-05
1.22129e-05
-1.53963e-05
1.30383e-05
-1.94928e-05
1.27436e-05
-2.31511e-05
1.14472e-05
-2.61173e-05
9.26769e-06
-2.81725e-05
6.3324e-06
-2.91396e-05
2.79881e-06
-2.88964e-05
-1.1208e-06
-2.73951e-05
-5.14129e-06
-2.46854e-05
-8.90089e-06
-2.09373e-05
-1.19792e-05
-1.64553e-05
-1.39432e-05
-1.16743e-05
-1.44238e-05
-7.12459e-06
-1.3218e-05
-3.36261e-06
-1.03901e-05
-8.77039e-07
-6.34363e-06
-1.8756e-06
-1.26677e-06
3.73627e-06
-4.29417e-06
9.88838e-06
-8.44381e-06
1.43148e-05
-1.3193e-05
1.69621e-05
-1.81115e-05
1.79568e-05
-2.2841e-05
1.74731e-05
-2.70756e-05
1.56819e-05
-3.05491e-05
1.27412e-05
-3.30278e-05
8.81112e-06
-3.43129e-05
4.08386e-06
-3.4251e-05
-1.18268e-06
-3.27547e-05
-6.63756e-06
-2.98314e-05
-1.18242e-05
-2.56181e-05
-1.61925e-05
-2.0414e-05
-1.91472e-05
-1.46971e-05
-2.01407e-05
-9.10393e-06
-1.88112e-05
-4.35853e-06
-1.51355e-05
-1.15179e-06
-9.55037e-06
-3.02739e-06
-1.46664e-06
5.20291e-06
-4.94082e-06
1.33626e-05
-9.66098e-06
1.9035e-05
-1.50211e-05
2.23222e-05
-2.05443e-05
2.348e-05
-2.58513e-05
2.27801e-05
-3.06306e-05
2.04611e-05
-3.46137e-05
1.67243e-05
-3.75604e-05
1.17578e-05
-3.92529e-05
5.77643e-06
-3.95027e-05
-9.32916e-07
-3.81691e-05
-7.97117e-06
-3.51939e-05
-1.47993e-05
-3.06503e-05
-2.07362e-05
-2.47993e-05
-2.49982e-05
-1.81384e-05
-2.68017e-05
-1.14105e-05
-2.55391e-05
-5.5406e-06
-2.10054e-05
-1.48278e-06
-1.36082e-05
-4.51017e-06
-1.64208e-06
6.845e-06
-5.50677e-06
1.72273e-05
-1.07199e-05
2.42481e-05
-1.66004e-05
2.82027e-05
-2.26339e-05
2.95136e-05
-2.84326e-05
2.85787e-05
-3.3692e-05
2.57206e-05
-3.81559e-05
2.11881e-05
-4.15891e-05
1.5191e-05
-4.37638e-05
7.95112e-06
-4.44576e-05
-2.3913e-07
-4.34687e-05
-8.96007e-06
-4.06523e-05
-1.76157e-05
-3.5982e-05
-2.54065e-05
-2.96344e-05
-3.13458e-05
-2.20814e-05
-3.43547e-05
-1.41503e-05
-3.34702e-05
-6.99242e-06
-2.81633e-05
-1.90406e-06
-1.86966e-05
-6.41423e-06
-1.79387e-06
8.63887e-06
-5.98998e-06
2.14234e-05
-1.16045e-05
2.98626e-05
-1.78861e-05
3.44844e-05
-2.42935e-05
3.59209e-05
-3.04444e-05
3.47296e-05
-3.60593e-05
3.13356e-05
-4.09121e-05
2.6041e-05
-4.47918e-05
1.90706e-05
-4.74765e-05
1.06359e-05
-4.87222e-05
1.00651e-06
-4.82682e-05
-9.41404e-06
-4.58698e-05
-2.00141e-05
-4.13655e-05
-2.99108e-05
-3.47881e-05
-3.79231e-05
-2.65103e-05
-4.26325e-05
-1.73845e-05
-4.2596e-05
-8.78833e-06
-3.67595e-05
-2.45125e-06
-2.50336e-05
-8.86548e-06
-1.92729e-06
1.05662e-05
-6.39878e-06
2.58949e-05
-1.23095e-05
3.57733e-05
-1.88366e-05
4.10115e-05
-2.5423e-05
4.25073e-05
-3.17111e-05
4.10176e-05
-3.74682e-05
3.70927e-05
-4.25228e-05
3.10956e-05
-4.67132e-05
2.32611e-05
-4.98504e-05
1.3773e-05
-5.1693e-05
2.84911e-06
-5.19398e-05
-9.1672e-06
-5.02484e-05
-2.17056e-05
-4.62964e-05
-3.38627e-05
-3.99078e-05
-4.43118e-05
-3.12523e-05
-5.12881e-05
-2.10946e-05
-5.27537e-05
-1.0983e-05
-4.6871e-05
-3.16306e-06
-3.28536e-05
-1.20285e-05
-2.05932e-06
1.26255e-05
-6.76705e-06
3.06026e-05
-1.2859e-05
4.18653e-05
-1.9432e-05
4.75845e-05
-2.59283e-05
4.90036e-05
-3.20405e-05
4.71298e-05
-3.7612e-05
4.26642e-05
-4.25555e-05
3.60391e-05
-4.67906e-05
2.74961e-05
-5.01958e-05
1.71783e-05
-5.25712e-05
5.22448e-06
-5.36122e-05
-8.12618e-06
-5.29051e-05
-2.24128e-05
-4.99645e-05
-3.68032e-05
-4.43507e-05
-4.99256e-05
-3.59067e-05
-5.97321e-05
-2.51313e-05
-6.35291e-05
-1.35941e-05
-5.84082e-05
-4.08338e-06
-4.23644e-05
-1.61119e-05
-2.23029e-06
1.48558e-05
-7.17518e-06
3.55475e-05
-1.33283e-05
4.80183e-05
-1.96918e-05
5.39481e-05
-2.57347e-05
5.50464e-05
-3.12388e-05
5.26339e-05
-3.6161e-05
4.75865e-05
-4.05333e-05
4.04113e-05
-4.43913e-05
3.13541e-05
-4.77208e-05
2.05078e-05
-5.04108e-05
7.91449e-06
-5.22095e-05
-6.32753e-06
-5.2688e-05
-2.19342e-05
-5.12346e-05
-3.82566e-05
-4.7127e-05
-5.40331e-05
-3.97644e-05
-6.70947e-05
-2.91437e-05
-7.41498e-05
-1.65701e-05
-7.09818e-05
-5.26322e-06
-5.36713e-05
-2.13751e-05
-2.52248e-06
1.73783e-05
-7.77573e-06
4.08007e-05
-1.3859e-05
5.41016e-05
-1.96752e-05
5.97643e-05
-2.47767e-05
6.01479e-05
-2.90971e-05
5.69544e-05
-3.27571e-05
5.12465e-05
-3.59453e-05
4.35994e-05
-3.88456e-05
3.42544e-05
-4.15865e-05
2.32487e-05
-4.41937e-05
1.05216e-05
-4.65335e-05
-3.98776e-06
-4.82461e-05
-2.02216e-05
-4.86796e-05
-3.78231e-05
-4.68775e-05
-5.58352e-05
-4.17318e-05
-7.22405e-05
-3.24838e-05
-8.33977e-05
-1.97328e-05
-8.37328e-05
-6.75897e-06
-6.66451e-05
-2.81341e-05
-3.09012e-06
2.04684e-05
-8.81581e-06
4.65264e-05
-1.46426e-05
5.99285e-05
-1.94225e-05
6.45441e-05
-2.29133e-05
6.36387e-05
-2.53008e-05
5.93419e-05
-2.69328e-05
5.28786e-05
-2.81903e-05
4.48569e-05
-2.94261e-05
3.54902e-05
-3.09304e-05
2.4753e-05
-3.28964e-05
1.24876e-05
-3.53663e-05
-1.51786e-06
-3.81451e-05
-1.74428e-05
-4.06745e-05
-3.52936e-05
-4.19041e-05
-5.46056e-05
-4.02738e-05
-7.38708e-05
-3.40854e-05
-8.95861e-05
-2.26736e-05
-9.51446e-05
-8.61491e-06
-8.07038e-05
-3.6749e-05
-4.20045e-06
2.46688e-05
-1.06215e-05
5.29475e-05
-1.57962e-05
6.51032e-05
-1.87442e-05
6.74921e-05
-1.96719e-05
6.45663e-05
-1.91655e-05
5.88355e-05
-1.78697e-05
5.15827e-05
-1.63774e-05
4.33646e-05
-1.52041e-05
3.4317e-05
-1.47881e-05
2.4337e-05
-1.54853e-05
1.31849e-05
-1.75376e-05
5.3438e-07
-2.09902e-05
-1.39902e-05
-2.55337e-05
-3.07501e-05
-3.02572e-05
-4.9882e-05
-3.33863e-05
-7.07417e-05
-3.23069e-05
-9.06655e-05
-2.45576e-05
-0.000102894
-1.07889e-05
-9.44725e-05
-4.75379e-05
-6.24693e-06
3.09158e-05
-1.34058e-05
6.01063e-05
-1.69246e-05
6.8622e-05
-1.66383e-05
6.72058e-05
-1.36281e-05
6.15561e-05
-9.05165e-06
5.42591e-05
-3.8837e-06
4.64148e-05
1.10238e-06
3.83785e-05
5.28707e-06
3.01323e-05
8.1485e-06
2.14756e-05
9.22595e-06
1.21075e-05
8.11358e-06
1.64675e-06
4.50966e-06
-1.03863e-05
-1.64492e-06
-2.45956e-05
-9.86092e-06
-4.16661e-05
-1.85937e-05
-6.20089e-05
-2.47128e-05
-8.45463e-05
-2.37517e-05
-0.000103855
-1.29155e-05
-0.000105309
-6.04535e-05
-9.56189e-06
4.04776e-05
-1.64276e-05
6.6972e-05
-1.58224e-05
6.80169e-05
-9.89014e-06
6.12735e-05
-1.12595e-06
5.27919e-05
8.70456e-06
4.44286e-05
1.84213e-05
3.66981e-05
2.72271e-05
2.95727e-05
3.45451e-05
2.28142e-05
3.99005e-05
1.61202e-05
4.2843e-05
9.16494e-06
4.29044e-05
1.58533e-06
3.95967e-05
-7.07857e-06
3.24754e-05
-1.74742e-05
2.13837e-05
-3.05744e-05
7.05576e-06
-4.7681e-05
-7.76882e-06
-6.97218e-05
-1.72143e-05
-9.44097e-05
-1.37643e-05
-0.000108759
-7.42178e-05
-1.34317e-05
5.39093e-05
-1.50823e-05
6.86225e-05
-5.09813e-06
5.80328e-05
9.81171e-06
4.63637e-05
2.58441e-05
3.67595e-05
4.12148e-05
2.90579e-05
5.50439e-05
2.2869e-05
6.68671e-05
1.77495e-05
7.6396e-05
1.32853e-05
8.33792e-05
9.13699e-06
8.75223e-05
5.02185e-06
8.84331e-05
6.7454e-07
8.55861e-05
-4.23154e-06
7.8275e-05
-1.01631e-05
6.5671e-05
-1.79704e-05
4.7194e-05
-2.9204e-05
2.37978e-05
-4.63256e-05
7.11896e-07
-7.13237e-05
-1.0218e-05
-9.78287e-05
-8.44358e-05
-9.41048e-06
6.33198e-05
8.82258e-06
5.03895e-05
3.51846e-05
3.16708e-05
6.00424e-05
2.15059e-05
8.14922e-05
1.53097e-05
9.94632e-05
1.10869e-05
0.000114214
8.11818e-06
0.000126028
5.93508e-06
0.000135111
4.20281e-06
0.000141546
2.70195e-06
0.000145283
1.28513e-06
0.000146114
-1.57028e-07
0.00014365
-1.76693e-06
0.000137187
-3.70068e-06
0.000125556
-6.33882e-06
0.000106905
-1.05533e-05
7.90854e-05
-1.8506e-05
4.22979e-05
-3.45363e-05
6.89901e-06
-6.24297e-05
-7.75368e-05
6.33198e-05
0.000113709
0.00014538
0.000166886
0.000182196
0.000193283
0.000201401
0.000207336
0.000211539
0.000214241
0.000215526
0.000215369
0.000213602
0.000209901
0.000203562
0.000193009
0.000174503
0.000139967
7.75368e-05
)
;

boundaryField
{
    movingWall
    {
        type            calculated;
        value           uniform 0;
    }
    fixedWalls
    {
        type            calculated;
        value           uniform 0;
    }
    frontAndBack
    {
        type            empty;
        value           nonuniform List<scalar> 0();
    }
}


// ************************************************************************* //
