/*--------------------------------*- C++ -*----------------------------------*\
  =========                 |
  \\      /  F ield         | OpenFOAM: The Open Source CFD Toolbox
   \\    /   O peration     | Website:  https://openfoam.org
    \\  /    A nd           | Version:  8
     \\/     M anipulation  |
\*---------------------------------------------------------------------------*/
FoamFile
{
    version     2.0;
    format      ascii;
    class       volVectorField;
    location    "1";
    object      U;
}
// * * * * * * * * * * * * * * * * * * * * * * * * * * * * * * * * * * * * * //

dimensions      [0 1 -1 0 0 0 0];

internalField   nonuniform List<vector> 
400
(
(0.00120502 -0.001207 0)
(0.000403059 0.000673719 0)
(-0.00645101 0.00286805 0)
(-0.0179697 0.00434113 0)
(-0.0321772 0.00506991 0)
(-0.0473014 0.00518612 0)
(-0.0618369 0.00480661 0)
(-0.0745017 0.00400795 0)
(-0.0841821 0.00283784 0)
(-0.0899202 0.00134585 0)
(-0.0909737 -0.000383527 0)
(-0.0869368 -0.00220736 0)
(-0.0778925 -0.00391695 0)
(-0.064547 -0.00525352 0)
(-0.0482936 -0.00594688 0)
(-0.0311524 -0.00577411 0)
(-0.015548 -0.00462939 0)
(-0.00390961 -0.00259467 0)
(0.00189221 -8.66546e-05 0)
(0.00157738 0.00152462 0)
(-0.000622625 -0.000510727 0)
(-0.00896342 0.00884161 0)
(-0.0300581 0.0184055 0)
(-0.0603899 0.0249879 0)
(-0.0959887 0.0282415 0)
(-0.13318 0.0284721 0)
(-0.168552 0.0260763 0)
(-0.199052 0.0214003 0)
(-0.222026 0.0147524 0)
(-0.235277 0.00650029 0)
(-0.237217 -0.00281669 0)
(-0.227104 -0.0124106 0)
(-0.205317 -0.0212373 0)
(-0.17358 -0.02808 0)
(-0.135026 -0.0317314 0)
(-0.0940273 -0.0312574 0)
(-0.0556738 -0.0263076 0)
(-0.0249224 -0.0174143 0)
(-0.00570023 -0.00641558 0)
(0.000312621 0.00208323 0)
(-0.00307547 0.00649875 0)
(-0.0201068 0.0303348 0)
(-0.0555827 0.0520807 0)
(-0.102999 0.0669076 0)
(-0.156671 0.0740025 0)
(-0.211716 0.0737937 0)
(-0.263504 0.0670404 0)
(-0.307828 0.0545372 0)
(-0.341022 0.0371144 0)
(-0.360082 0.0158061 0)
(-0.362871 -0.00794569 0)
(-0.348419 -0.0321567 0)
(-0.317257 -0.0543102 0)
(-0.271679 -0.0715579 0)
(-0.215846 -0.0811297 0)
(-0.155578 -0.0809279 0)
(-0.0977164 -0.0702204 0)
(-0.0490485 -0.0502832 0)
(-0.0155804 -0.0250331 0)
(-0.00167177 -0.00260518 0)
(-0.00527241 0.0195523 0)
(-0.0305712 0.0642413 0)
(-0.079883 0.101435 0)
(-0.143264 0.125963 0)
(-0.213228 0.137029 0)
(-0.283918 0.135384 0)
(-0.34987 0.122263 0)
(-0.406126 0.0990172 0)
(-0.448363 0.0671361 0)
(-0.47301 0.0284953 0)
(-0.477473 -0.0143422 0)
(-0.460466 -0.0579309 0)
(-0.422386 -0.0979612 0)
(-0.365663 -0.129574 0)
(-0.294967 -0.148015 0)
(-0.217111 -0.149597 0)
(-0.140426 -0.132857 0)
(-0.0736244 -0.0996112 0)
(-0.0253412 -0.0557587 0)
(-0.00346109 -0.0125732 0)
(-0.00717364 0.037972 0)
(-0.0400248 0.109542 0)
(-0.102255 0.16505 0)
(-0.180496 0.200218 0)
(-0.265457 0.214989 0)
(-0.350425 0.21082 0)
(-0.429343 0.189618 0)
(-0.496772 0.153384 0)
(-0.54796 0.104316 0)
(-0.578903 0.0451635 0)
(-0.586532 -0.0203531 0)
(-0.569055 -0.0872588 0)
(-0.526389 -0.149306 0)
(-0.460645 -0.199351 0)
(-0.376541 -0.230212 0)
(-0.281568 -0.236017 0)
(-0.185526 -0.21391 0)
(-0.0994201 -0.165661 0)
(-0.0352349 -0.0987735 0)
(-0.00511033 -0.0275252 0)
(-0.00883694 0.0611646 0)
(-0.048501 0.165333 0)
(-0.122555 0.241974 0)
(-0.214445 0.288696 0)
(-0.313179 0.306929 0)
(-0.411322 0.299312 0)
(-0.50241 0.26867 0)
(-0.580745 0.217748 0)
(-0.641328 0.149435 0)
(-0.679808 0.0672743 0)
(-0.692595 -0.0239739 0)
(-0.677174 -0.117891 0)
(-0.632602 -0.206268 0)
(-0.560165 -0.279441 0)
(-0.464109 -0.327266 0)
(-0.352213 -0.340844 0)
(-0.235699 -0.31488 0)
(-0.128287 -0.250138 0)
(-0.0462089 -0.155205 0)
(-0.00687351 -0.0476281 0)
(-0.0103024 0.0886061 0)
(-0.0560442 0.230609 0)
(-0.140699 0.331021 0)
(-0.244823 0.39018 0)
(-0.355899 0.411731 0)
(-0.465931 0.400002 0)
(-0.568263 0.359017 0)
(-0.65716 0.292348 0)
(-0.727577 0.203505 0)
(-0.774937 0.0966257 0)
(-0.795121 -0.0227469 0)
(-0.784721 -0.147008 0)
(-0.741565 -0.266124 0)
(-0.665557 -0.367774 0)
(-0.559794 -0.438289 0)
(-0.431724 -0.464655 0)
(-0.293678 -0.437656 0)
(-0.162385 -0.355551 0)
(-0.0594174 -0.227144 0)
(-0.00904859 -0.0736697 0)
(-0.0115898 0.119801 0)
(-0.0626635 0.304279 0)
(-0.156551 0.430765 0)
(-0.271176 0.503086 0)
(-0.392691 0.527834 0)
(-0.512747 0.511565 0)
(-0.624752 0.459808 0)
(-0.723215 0.377042 0)
(-0.803313 0.267277 0)
(-0.860458 0.134967 0)
(-0.890121 -0.013972 0)
(-0.88795 -0.171196 0)
(-0.850264 -0.325208 0)
(-0.775019 -0.461106 0)
(-0.663316 -0.561235 0)
(-0.521281 -0.607254 0)
(-0.361556 -0.584045 0)
(-0.203788 -0.485068 0)
(-0.076089 -0.317717 0)
(-0.0119639 -0.107114 0)
(-0.0127194 0.15426 0)
(-0.0683867 0.385177 0)
(-0.169992 0.539519 0)
(-0.292966 0.62535 0)
(-0.4223 0.652997 0)
(-0.549544 0.631845 0)
(-0.668492 0.569272 0)
(-0.774267 0.470761 0)
(-0.862642 0.340686 0)
(-0.929381 0.183469 0)
(-0.969842 0.00487706 0)
(-0.978896 -0.186658 0)
(-0.951274 -0.378827 0)
(-0.882521 -0.55459 0)
(-0.77079 -0.692171 0)
(-0.619482 -0.766777 0)
(-0.440028 -0.754981 0)
(-0.25414 -0.642066 0)
(-0.0974841 -0.430995 0)
(-0.0160016 -0.150131 0)
(-0.0137591 0.191534 0)
(-0.0734042 0.472116 0)
(-0.181149 0.65531 0)
(-0.309829 0.754261 0)
(-0.443404 0.78398 0)
(-0.573636 0.757399 0)
(-0.695133 0.684157 0)
(-0.804097 0.570865 0)
(-0.897398 0.422141 0)
(-0.971676 0.242016 0)
(-1.0227 0.0355114 0)
(-1.04503 -0.189676 0)
(-1.03205 -0.421416 0)
(-0.976731 -0.641474 0)
(-0.8734 -0.824455 0)
(-0.721016 -0.938465 0)
(-0.527406 -0.949226 0)
(-0.314224 -0.82921 0)
(-0.124883 -0.571675 0)
(-0.0216495 -0.20564 0)
(-0.0149043 0.231371 0)
(-0.0783078 0.564075 0)
(-0.190745 0.775916 0)
(-0.321963 0.886302 0)
(-0.454988 0.916223 0)
(-0.582255 0.883053 0)
(-0.699753 0.799174 0)
(-0.805355 0.672494 0)
(-0.897635 0.507791 0)
(-0.974774 0.308388 0)
(-1.0337 0.0779732 0)
(-1.06943 -0.177408 0)
(-1.07472 -0.447084 0)
(-1.04028 -0.713187 0)
(-0.956166 -0.948127 0)
(-0.815168 -1.11332 0)
(-0.618297 -1.1616 0)
(-0.383266 -1.04697 0)
(-0.159535 -0.744493 0)
(-0.0295816 -0.277405 0)
(-0.0166144 0.274045 0)
(-0.0844486 0.660571 0)
(-0.200552 0.898979 0)
(-0.330524 1.017 0)
(-0.456653 1.04351 0)
(-0.572814 1.00147 0)
(-0.677184 0.906517 0)
(-0.770024 0.768026 0)
(-0.852292 0.590884 0)
(-0.924432 0.377477 0)
(-0.985385 0.129689 0)
(-1.0317 -0.14895 0)
(-1.05666 -0.450654 0)
(-1.04977 -0.76002 0)
(-0.997181 -1.04983 0)
(-0.884342 -1.2769 0)
(-0.701908 -1.38084 0)
(-0.457801 -1.29139 0)
(-0.202483 -0.953139 0)
(-0.0407696 -0.370181 0)
(-0.0198529 0.32101 0)
(-0.0944539 0.762227 0)
(-0.213839 1.02207 0)
(-0.337777 1.1406 0)
(-0.44847 1.15754 0)
(-0.542625 1.10272 0)
(-0.621778 0.99551 0)
(-0.689435 0.846773 0)
(-0.749599 0.661428 0)
(-0.805614 0.440791 0)
(-0.859233 0.184679 0)
(-0.909632 -0.106491 0)
(-0.952168 -0.4291 0)
(-0.976941 -0.772555 0)
(-0.967783 -1.11364 0)
(-0.903022 -1.4089 0)
(-0.760102 -1.58738 0)
(-0.529893 -1.55095 0)
(-0.254047 -1.19831 0)
(-0.0566029 -0.48991 0)
(-0.0265056 0.37604 0)
(-0.11291 0.871423 0)
(-0.235489 1.14233 0)
(-0.346312 1.24929 0)
(-0.42948 1.24707 0)
(-0.487055 1.17376 0)
(-0.525612 1.0524 0)
(-0.552837 0.895048 0)
(-0.576275 0.706383 0)
(-0.602503 0.486557 0)
(-0.636524 0.233325 0)
(-0.680971 -0.0561412 0)
(-0.734757 -0.383114 0)
(-0.790934 -0.743825 0)
(-0.833983 -1.12317 0)
(-0.837573 -1.48398 0)
(-0.765419 -1.75191 0)
(-0.584454 -1.80269 0)
(-0.312487 -1.47418 0)
(-0.078865 -0.643647 0)
(-0.0400075 0.447107 0)
(-0.146915 0.992529 0)
(-0.270664 1.25504 0)
(-0.355555 1.33124 0)
(-0.392826 1.29657 0)
(-0.394178 1.19773 0)
(-0.373331 1.06044 0)
(-0.342906 0.896852 0)
(-0.31403 0.71074 0)
(-0.296239 0.500906 0)
(-0.297523 0.263279 0)
(-0.32406 -0.00776227 0)
(-0.379193 -0.318143 0)
(-0.461146 -0.671769 0)
(-0.55904 -1.0651 0)
(-0.647105 -1.47495 0)
(-0.679163 -1.83582 0)
(-0.595119 -2.00847 0)
(-0.370584 -1.7628 0)
(-0.108931 -0.838588 0)
(-0.0657182 0.549516 0)
(-0.204759 1.13022 0)
(-0.318373 1.34913 0)
(-0.351073 1.36672 0)
(-0.313294 1.28381 0)
(-0.232447 1.15337 0)
(-0.131007 1.00069 0)
(-0.0262657 0.835722 0)
(0.0680973 0.660034 0)
(0.140883 0.470696 0)
(0.182404 0.262186 0)
(0.183962 0.0270945 0)
(0.138162 -0.243746 0)
(0.0405133 -0.560824 0)
(-0.106541 -0.933186 0)
(-0.285263 -1.35821 0)
(-0.44947 -1.79494 0)
(-0.517815 -2.11298 0)
(-0.407822 -2.02708 0)
(-0.144239 -1.0809 0)
(-0.108549 0.712174 0)
(-0.286085 1.28083 0)
(-0.348978 1.39366 0)
(-0.276125 1.31812 0)
(-0.119761 1.1752 0)
(0.072963 1.01437 0)
(0.272912 0.854025 0)
(0.461289 0.698228 0)
(0.624981 0.54463 0)
(0.753895 0.388169 0)
(0.839077 0.222402 0)
(0.871499 0.0395359 0)
(0.841572 -0.170441 0)
(0.739461 -0.42122 0)
(0.557455 -0.731314 0)
(0.29789 -1.12006 0)
(-0.00896656 -1.58571 0)
(-0.281522 -2.04331 0)
(-0.376075 -2.20073 0)
(-0.167798 -1.37387 0)
(-0.155435 0.978495 0)
(-0.340109 1.40051 0)
(-0.237125 1.3065 0)
(0.0334645 1.11482 0)
(0.355067 0.923823 0)
(0.674867 0.754372 0)
(0.969884 0.608714 0)
(1.22822 0.48195 0)
(1.44307 0.367149 0)
(1.60948 0.257539 0)
(1.72234 0.146764 0)
(1.77499 0.0282612 0)
(1.75851 -0.10605 0)
(1.66068 -0.268173 0)
(1.46561 -0.478207 0)
(1.15706 -0.768907 0)
(0.731354 -1.18073 0)
(0.228256 -1.71347 0)
(-0.173245 -2.15964 0)
(-0.118908 -1.67514 0)
(-0.04755 1.26956 0)
(-0.0720385 1.31694 0)
(0.411501 0.969028 0)
(0.958316 0.709607 0)
(1.42968 0.529396 0)
(1.82335 0.398467 0)
(2.14949 0.30118 0)
(2.41444 0.226167 0)
(2.62298 0.164612 0)
(2.77813 0.110133 0)
(2.88037 0.0580194 0)
(2.92725 0.00429104 0)
(2.91305 -0.0552918 0)
(2.82729 -0.127359 0)
(2.65213 -0.224396 0)
(2.35867 -0.373305 0)
(1.90204 -0.63042 0)
(1.22471 -1.07928 0)
(0.452913 -1.68868 0)
(0.21754 -1.70194 0)
(1.4384 0.707268 0)
(1.83587 0.626639 0)
(2.56358 0.398319 0)
(3.13773 0.251695 0)
(3.51217 0.164276 0)
(3.7694 0.109444 0)
(3.95699 0.0740133 0)
(4.09538 0.0502462 0)
(4.19554 0.0331278 0)
(4.26391 0.0195273 0)
(4.30359 0.00749542 0)
(4.31507 -0.00430604 0)
(4.29652 -0.0169554 0)
(4.24314 -0.032176 0)
(4.14515 -0.0531838 0)
(3.9814 -0.087989 0)
(3.70265 -0.158367 0)
(3.17454 -0.316178 0)
(2.29968 -0.622794 0)
(1.66837 -0.77992 0)
)
;

boundaryField
{
    movingWall
    {
        type            fixedValue;
        value           uniform (5.07442 0 0);
    }
    fixedWalls
    {
        type            noSlip;
    }
    frontAndBack
    {
        type            empty;
    }
}


// ************************************************************************* //
