/*--------------------------------*- C++ -*----------------------------------*\
  =========                 |
  \\      /  F ield         | OpenFOAM: The Open Source CFD Toolbox
   \\    /   O peration     | Website:  https://openfoam.org
    \\  /    A nd           | Version:  8
     \\/     M anipulation  |
\*---------------------------------------------------------------------------*/
FoamFile
{
    version     2.0;
    format      ascii;
    class       volScalarField;
    location    "1";
    object      p;
}
// * * * * * * * * * * * * * * * * * * * * * * * * * * * * * * * * * * * * * //

dimensions      [0 2 -2 0 0 0 0];

internalField   nonuniform List<scalar> 
400
(
-0.0991709
-0.19815
-0.251292
-0.276668
-0.280301
-0.268085
-0.243146
-0.206069
-0.159499
-0.106428
-0.0490877
0.0103369
0.0690799
0.123999
0.17222
0.211697
0.241433
0.261417
0.272427
0.276089
-0.198537
-0.239009
-0.268535
-0.283683
-0.282667
-0.267813
-0.241472
-0.204335
-0.158591
-0.106594
-0.0501627
0.00867957
0.0671525
0.121981
0.170098
0.209284
0.238467
0.257576
0.266974
0.266621
-0.250229
-0.268437
-0.280241
-0.284642
-0.277313
-0.259965
-0.233896
-0.198801
-0.156224
-0.107946
-0.0551145
0.000810767
0.0572445
0.110683
0.15758
0.195287
0.222621
0.239725
0.247165
0.245413
-0.273234
-0.280732
-0.280736
-0.276541
-0.263916
-0.244789
-0.220042
-0.188547
-0.15122
-0.109225
-0.0627979
-0.0124597
0.0397019
0.0900504
0.134486
0.169798
0.194553
0.209018
0.214105
0.210851
-0.278058
-0.27909
-0.271642
-0.261049
-0.244091
-0.223542
-0.200458
-0.17314
-0.142018
-0.107938
-0.0703444
-0.0285837
0.0161757
0.0605507
0.100162
0.131412
0.152634
0.164005
0.166738
0.162266
-0.27037
-0.267664
-0.255755
-0.241075
-0.221138
-0.199763
-0.178665
-0.155777
-0.131028
-0.105462
-0.078327
-0.0478468
-0.0137821
0.0214288
0.0537039
0.0793511
0.0964276
0.104723
0.105692
0.100946
-0.255796
-0.251859
-0.23829
-0.222246
-0.201278
-0.17999
-0.1612
-0.142789
-0.123696
-0.105617
-0.0887427
-0.0708369
-0.0499856
-0.0268045
-0.00414113
0.0147796
0.0277435
0.0337352
0.0341514
0.0304309
-0.239665
-0.236823
-0.224531
-0.21032
-0.191013
-0.171291
-0.155343
-0.141956
-0.127905
-0.115227
-0.106384
-0.100092
-0.0930756
-0.0833873
-0.071534
-0.0594845
-0.0496255
-0.0442926
-0.0428279
-0.04458
-0.224407
-0.22492
-0.216915
-0.208239
-0.194471
-0.179132
-0.167184
-0.160742
-0.152967
-0.144345
-0.140211
-0.142145
-0.146752
-0.149456
-0.147559
-0.140927
-0.131897
-0.124691
-0.120514
-0.120503
-0.208251
-0.213811
-0.212773
-0.213452
-0.210344
-0.204564
-0.19869
-0.202494
-0.205379
-0.202784
-0.201515
-0.207423
-0.219016
-0.230143
-0.234838
-0.230282
-0.218422
-0.205841
-0.197133
-0.196714
-0.185058
-0.196203
-0.204664
-0.218433
-0.231753
-0.244126
-0.248098
-0.265463
-0.285333
-0.294996
-0.298925
-0.306647
-0.320332
-0.334279
-0.340367
-0.333133
-0.313678
-0.291002
-0.274667
-0.274461
-0.145663
-0.162249
-0.184338
-0.216152
-0.250971
-0.293079
-0.314425
-0.347611
-0.388549
-0.417574
-0.432728
-0.444045
-0.457291
-0.469163
-0.471518
-0.457096
-0.425314
-0.386521
-0.356002
-0.351973
-0.0812303
-0.104269
-0.14805
-0.207342
-0.266857
-0.347372
-0.398184
-0.450625
-0.511867
-0.562539
-0.593981
-0.612585
-0.625144
-0.631637
-0.62671
-0.603081
-0.556658
-0.495573
-0.438988
-0.418612
0.0130135
-0.0209117
-0.0965132
-0.197932
-0.285991
-0.398598
-0.487294
-0.567344
-0.649497
-0.721265
-0.771614
-0.799342
-0.807319
-0.801302
-0.784237
-0.75183
-0.693435
-0.607653
-0.510093
-0.452739
0.138463
0.083611
-0.0259286
-0.174953
-0.30345
-0.42595
-0.541619
-0.658097
-0.774354
-0.877907
-0.957411
-0.999807
-0.983645
-0.941401
-0.896577
-0.852216
-0.788315
-0.684859
-0.539623
-0.425713
0.302287
0.209235
0.0779563
-0.0842571
-0.265885
-0.397376
-0.527659
-0.689853
-0.87536
-1.05215
-1.18708
-1.24029
-1.18288
-1.05165
-0.917874
-0.826379
-0.753672
-0.651867
-0.480373
-0.310019
0.525156
0.382683
0.239222
0.116682
-0.0926531
-0.292238
-0.515459
-0.782894
-1.07169
-1.33364
-1.51622
-1.57691
-1.49655
-1.26388
-0.954854
-0.668906
-0.483212
-0.390187
-0.265356
-0.088855
0.837334
0.690112
0.543482
0.366766
0.0752291
-0.269912
-0.665289
-1.06748
-1.4161
-1.67879
-1.84478
-1.90861
-1.85973
-1.66499
-1.27417
-0.695433
-0.132136
0.200114
0.247565
0.314957
1.45442
1.25538
0.951641
0.481946
-0.106495
-0.645463
-1.08638
-1.4458
-1.73073
-1.94188
-2.08107
-2.14816
-2.13365
-2.00928
-1.71986
-1.17924
-0.310866
0.604526
1.10265
1.19926
2.09976
1.62289
0.830193
-0.00150505
-0.584958
-1.00271
-1.34176
-1.62764
-1.86061
-2.03849
-2.16116
-2.22732
-2.22847
-2.1442
-1.94147
-1.57523
-0.944583
0.126377
1.46154
2.18933
)
;

boundaryField
{
    movingWall
    {
        type            zeroGradient;
    }
    fixedWalls
    {
        type            zeroGradient;
    }
    frontAndBack
    {
        type            empty;
    }
}


// ************************************************************************* //
