/*--------------------------------*- C++ -*----------------------------------*\
  =========                 |
  \\      /  F ield         | OpenFOAM: The Open Source CFD Toolbox
   \\    /   O peration     | Website:  https://openfoam.org
    \\  /    A nd           | Version:  8
     \\/     M anipulation  |
\*---------------------------------------------------------------------------*/
FoamFile
{
    version     2.0;
    format      ascii;
    class       surfaceScalarField;
    location    "1";
    object      phi;
}
// * * * * * * * * * * * * * * * * * * * * * * * * * * * * * * * * * * * * * //

dimensions      [0 3 -1 0 0 0 0];

internalField   nonuniform List<scalar> 
760
(
6.40848e-08
-6.40556e-08
-1.3383e-07
1.97915e-07
-6.01295e-07
4.67469e-07
-1.24957e-06
6.48276e-07
-1.98591e-06
7.36335e-07
-2.72926e-06
7.4335e-07
-3.41073e-06
6.81474e-07
-3.97096e-06
5.60227e-07
-4.35826e-06
3.87303e-07
-4.52989e-06
1.71629e-07
-4.45663e-06
-7.32667e-08
-4.12976e-06
-3.26862e-07
-3.56844e-06
-5.61317e-07
-2.82484e-06
-7.43607e-07
-1.98437e-06
-8.40467e-07
-1.15875e-06
-8.2562e-07
-4.7055e-07
-6.88205e-07
-2.98304e-08
-4.4072e-07
1.02182e-07
-1.3201e-07
1.02185e-07
-1.96191e-07
1.32127e-07
-9.65921e-07
9.67653e-07
-2.25634e-06
1.75789e-06
-3.90537e-06
2.29731e-06
-5.72702e-06
2.55798e-06
-7.54257e-06
2.5589e-06
-9.19058e-06
2.32948e-06
-1.05289e-05
1.89856e-06
-1.14364e-05
1.29477e-06
-1.1818e-05
5.53285e-07
-1.16151e-05
-2.7619e-07
-1.08179e-05
-1.12407e-06
-9.4784e-06
-1.90082e-06
-7.71771e-06
-2.5043e-06
-5.72362e-06
-2.83455e-06
-3.73384e-06
-2.81541e-06
-2.00231e-06
-2.41974e-06
-7.50059e-07
-1.69298e-06
-1.03258e-07
-7.7882e-07
-1.07011e-09
-5.06028e-07
6.38161e-07
-1.89199e-06
2.35362e-06
-3.96648e-06
3.83237e-06
-6.4891e-06
4.81993e-06
-9.2071e-06
5.27599e-06
-1.18784e-05
5.2302e-06
-1.42817e-05
4.73273e-06
-1.62206e-05
3.83752e-06
-1.75286e-05
2.60275e-06
-1.80767e-05
1.10139e-06
-1.77868e-05
-5.66116e-07
-1.66472e-05
-2.26367e-06
-1.47279e-05
-3.82009e-06
-1.219e-05
-5.04221e-06
-9.28304e-06
-5.74151e-06
-6.32518e-06
-5.77326e-06
-3.66215e-06
-5.08277e-06
-1.60727e-06
-3.74786e-06
-3.7128e-07
-2.01481e-06
-3.72349e-07
-7.89284e-07
1.42745e-06
-2.76795e-06
4.33229e-06
-5.58656e-06
6.65097e-06
-8.91096e-06
8.14433e-06
-1.24258e-05
8.79087e-06
-1.58414e-05
8.64579e-06
-1.88964e-05
7.78766e-06
-2.13593e-05
6.30045e-06
-2.30329e-05
4.2764e-06
-2.37629e-05
1.83134e-06
-2.34515e-05
-8.77498e-07
-2.20758e-05
-3.63939e-06
-1.97057e-05
-6.19017e-06
-1.65182e-05
-8.2297e-06
-1.28002e-05
-9.45956e-06
-8.93228e-06
-9.64116e-06
-5.3481e-06
-8.66695e-06
-2.46882e-06
-6.62713e-06
-6.26112e-07
-3.85752e-06
-9.9846e-07
-1.04163e-06
2.46908e-06
-3.5692e-06
6.85986e-06
-7.08179e-06
1.01636e-05
-1.11484e-05
1.2211e-05
-1.53938e-05
1.30363e-05
-1.94897e-05
1.27416e-05
-2.31474e-05
1.14454e-05
-2.61131e-05
9.26615e-06
-2.8168e-05
6.33129e-06
-2.91349e-05
2.79824e-06
-2.88917e-05
-1.12072e-06
-2.73905e-05
-5.14051e-06
-2.46813e-05
-8.89943e-06
-2.09337e-05
-1.19772e-05
-1.64525e-05
-1.39408e-05
-1.16723e-05
-1.44213e-05
-7.12346e-06
-1.32158e-05
-3.3621e-06
-1.03885e-05
-8.76919e-07
-6.3427e-06
-1.87538e-06
-1.26656e-06
3.73563e-06
-4.29348e-06
9.88678e-06
-8.44248e-06
1.43126e-05
-1.31909e-05
1.69594e-05
-1.81087e-05
1.7954e-05
-2.28374e-05
1.74703e-05
-2.70714e-05
1.56793e-05
-3.05443e-05
1.2739e-05
-3.30225e-05
8.80954e-06
-3.43073e-05
4.083e-06
-3.42453e-05
-1.18268e-06
-3.27492e-05
-6.63662e-06
-2.98263e-05
-1.18223e-05
-2.56137e-05
-1.61898e-05
-2.04105e-05
-1.9144e-05
-1.46946e-05
-2.01373e-05
-9.10241e-06
-1.8808e-05
-4.35783e-06
-1.51331e-05
-1.15162e-06
-9.54892e-06
-3.027e-06
-1.46641e-06
5.20204e-06
-4.94005e-06
1.33604e-05
-9.65949e-06
1.9032e-05
-1.50188e-05
2.23188e-05
-2.05412e-05
2.34764e-05
-2.58474e-05
2.27765e-05
-3.06258e-05
2.04578e-05
-3.46083e-05
1.67215e-05
-3.75543e-05
1.17556e-05
-3.92465e-05
5.77516e-06
-3.94961e-05
-9.33101e-07
-3.81626e-05
-7.97014e-06
-3.51878e-05
-1.4797e-05
-3.06449e-05
-2.07328e-05
-2.47949e-05
-2.49939e-05
-1.81352e-05
-2.6797e-05
-1.14085e-05
-2.55347e-05
-5.53965e-06
-2.10019e-05
-1.48255e-06
-1.3606e-05
-4.50955e-06
-1.64183e-06
6.84387e-06
-5.50594e-06
1.72245e-05
-1.07183e-05
2.42444e-05
-1.6598e-05
2.81984e-05
-2.26306e-05
2.9509e-05
-2.84283e-05
2.85742e-05
-3.3687e-05
2.57164e-05
-3.815e-05
2.11845e-05
-4.15825e-05
1.51882e-05
-4.37567e-05
7.94931e-06
-4.44501e-05
-2.39639e-07
-4.34612e-05
-8.95909e-06
-4.06451e-05
-1.76131e-05
-3.59755e-05
-2.54024e-05
-2.9629e-05
-3.13405e-05
-2.20773e-05
-3.43487e-05
-1.41477e-05
-3.34643e-05
-6.99115e-06
-2.81584e-05
-1.90373e-06
-1.86934e-05
-6.41328e-06
-1.79362e-06
8.63749e-06
-5.98914e-06
2.14201e-05
-1.16029e-05
2.98581e-05
-1.78837e-05
3.44792e-05
-2.42901e-05
3.59155e-05
-3.044e-05
3.47242e-05
-3.60541e-05
3.13305e-05
-4.0906e-05
2.60364e-05
-4.47848e-05
1.9067e-05
-4.74689e-05
1.06334e-05
-4.87141e-05
1.00551e-06
-4.82599e-05
-9.41328e-06
-4.58616e-05
-2.00114e-05
-4.13579e-05
-2.99061e-05
-3.47815e-05
-3.79168e-05
-2.65052e-05
-4.2625e-05
-1.73812e-05
-4.25883e-05
-8.78665e-06
-3.67529e-05
-2.4508e-06
-2.50293e-05
-8.86408e-06
-1.92704e-06
1.05645e-05
-6.39797e-06
2.5891e-05
-1.23079e-05
3.57681e-05
-1.88342e-05
4.10055e-05
-2.54197e-05
4.2501e-05
-3.17068e-05
4.10113e-05
-3.74631e-05
3.70867e-05
-4.25167e-05
3.10901e-05
-4.67063e-05
2.32565e-05
-4.98426e-05
1.37697e-05
-5.16846e-05
2.84746e-06
-5.1931e-05
-9.16686e-06
-5.02394e-05
-2.1703e-05
-4.62879e-05
-3.38576e-05
-3.99002e-05
-4.43045e-05
-3.12461e-05
-5.12791e-05
-2.10903e-05
-5.27441e-05
-1.09808e-05
-4.68624e-05
-3.16244e-06
-3.28477e-05
-1.20265e-05
-2.05909e-06
1.26236e-05
-6.76629e-06
3.05982e-05
-1.28575e-05
4.18593e-05
-1.94297e-05
4.75777e-05
-2.59252e-05
4.89964e-05
-3.20365e-05
4.71226e-05
-3.76072e-05
4.26573e-05
-4.25498e-05
3.60327e-05
-4.67839e-05
2.74907e-05
-5.01883e-05
1.71741e-05
-5.25629e-05
5.22205e-06
-5.36033e-05
-8.12646e-06
-5.28958e-05
-2.24105e-05
-4.99554e-05
-3.67981e-05
-4.43422e-05
-4.99176e-05
-3.58995e-05
-5.97218e-05
-2.51261e-05
-6.35176e-05
-1.35913e-05
-5.83972e-05
-4.08254e-06
-4.23564e-05
-1.61091e-05
-2.23008e-06
1.48537e-05
-7.1745e-06
3.55426e-05
-1.33269e-05
4.80118e-05
-1.96898e-05
5.39406e-05
-2.5732e-05
5.50385e-05
-3.12353e-05
5.2626e-05
-3.61568e-05
4.75788e-05
-4.05283e-05
4.04042e-05
-4.43855e-05
3.13479e-05
-4.77141e-05
2.05028e-05
-5.04033e-05
7.91124e-06
-5.22012e-05
-6.32857e-06
-5.26791e-05
-2.19325e-05
-5.12255e-05
-3.82518e-05
-4.71182e-05
-5.40249e-05
-3.97566e-05
-6.70834e-05
-2.91377e-05
-7.41364e-05
-1.65666e-05
-7.09684e-05
-5.26209e-06
-5.3661e-05
-2.13711e-05
-2.52228e-06
1.7376e-05
-7.77511e-06
4.07954e-05
-1.38579e-05
5.40946e-05
-1.96735e-05
5.97562e-05
-2.47744e-05
6.01394e-05
-2.90943e-05
5.69459e-05
-3.27538e-05
5.12383e-05
-3.59413e-05
4.35917e-05
-3.8841e-05
3.42475e-05
-4.15812e-05
2.32431e-05
-4.41876e-05
1.05176e-05
-4.65266e-05
-3.98957e-06
-4.82385e-05
-2.02207e-05
-4.86714e-05
-3.78189e-05
-4.68691e-05
-5.58272e-05
-4.17237e-05
-7.22287e-05
-3.24772e-05
-8.33829e-05
-1.97286e-05
-8.37169e-05
-6.75748e-06
-6.66321e-05
-2.81286e-05
-3.0899e-06
2.04659e-05
-8.81516e-06
4.65207e-05
-1.46415e-05
5.99209e-05
-1.9421e-05
6.45357e-05
-2.29114e-05
6.36299e-05
-2.52986e-05
5.93331e-05
-2.69304e-05
5.287e-05
-2.81876e-05
4.48489e-05
-2.94231e-05
3.5483e-05
-3.0927e-05
2.4747e-05
-3.28925e-05
1.24831e-05
-3.53617e-05
-1.52032e-06
-3.81397e-05
-1.74427e-05
-4.06684e-05
-3.52903e-05
-4.18972e-05
-5.45984e-05
-4.02665e-05
-7.38594e-05
-3.40788e-05
-8.95707e-05
-2.26688e-05
-9.51269e-05
-8.613e-06
-8.06879e-05
-3.67416e-05
-4.20012e-06
2.4666e-05
-1.06207e-05
5.29412e-05
-1.5795e-05
6.50952e-05
-1.87428e-05
6.74835e-05
-1.96704e-05
6.45575e-05
-1.91641e-05
5.88268e-05
-1.78684e-05
5.15743e-05
-1.63762e-05
4.33568e-05
-1.52031e-05
3.43099e-05
-1.47871e-05
2.4331e-05
-1.54843e-05
1.31803e-05
-1.75362e-05
5.31581e-07
-2.09882e-05
-1.39907e-05
-2.55307e-05
-3.07477e-05
-3.02531e-05
-4.9876e-05
-3.33811e-05
-7.07314e-05
-3.23012e-05
-9.06506e-05
-2.45527e-05
-0.000102875
-1.07866e-05
-9.4454e-05
-4.75282e-05
-6.24632e-06
3.09123e-05
-1.34045e-05
6.00994e-05
-1.6923e-05
6.86138e-05
-1.66367e-05
6.71972e-05
-1.36268e-05
6.15475e-05
-9.05092e-06
5.4251e-05
-3.88364e-06
4.6407e-05
1.10171e-06
3.83714e-05
5.28569e-06
3.01259e-05
8.14651e-06
2.14702e-05
9.22354e-06
1.21033e-05
8.11104e-06
1.64408e-06
4.5074e-06
-1.03871e-05
-1.64637e-06
-2.45939e-05
-9.86098e-06
-4.16614e-05
-1.85919e-05
-6.20005e-05
-2.47093e-05
-8.45332e-05
-2.37475e-05
-0.000103837
-1.29129e-05
-0.000105289
-6.04412e-05
-9.56072e-06
4.04731e-05
-1.64254e-05
6.69641e-05
-1.58202e-05
6.80085e-05
-9.88846e-06
6.12655e-05
-1.12524e-06
5.27843e-05
8.70404e-06
4.44217e-05
1.84194e-05
3.66917e-05
2.72238e-05
2.9567e-05
3.45405e-05
2.28092e-05
3.98946e-05
1.61161e-05
4.28362e-05
9.16172e-06
4.2897e-05
1.58328e-06
3.95891e-05
-7.07921e-06
3.24683e-05
-1.74731e-05
2.13781e-05
-3.05712e-05
7.0524e-06
-4.76748e-05
-7.76925e-06
-6.97115e-05
-1.72123e-05
-9.43941e-05
-1.3762e-05
-0.000108739
-7.42032e-05
-1.34296e-05
5.39027e-05
-1.50794e-05
6.86139e-05
-5.09613e-06
5.80252e-05
9.81208e-06
4.63573e-05
2.58425e-05
3.67539e-05
4.12111e-05
2.9053e-05
5.5038e-05
2.28648e-05
6.68591e-05
1.77458e-05
7.63861e-05
1.32823e-05
8.33677e-05
9.1345e-06
8.75094e-05
5.02e-06
8.84192e-05
6.73429e-07
8.55718e-05
-4.2318e-06
7.82611e-05
-1.01623e-05
6.56583e-05
-1.79684e-05
4.71838e-05
-2.92003e-05
2.37914e-05
-4.63192e-05
7.10014e-07
-7.13127e-05
-1.0217e-05
-9.78119e-05
-8.44202e-05
-9.40814e-06
6.33108e-05
8.82311e-06
5.03827e-05
3.51819e-05
3.16664e-05
6.00365e-05
2.15027e-05
8.14832e-05
1.53072e-05
9.94514e-05
1.10848e-05
0.0001142
8.11655e-06
0.000126012
5.93376e-06
0.000135092
4.20175e-06
0.000141526
2.70115e-06
0.000145261
1.28459e-06
0.000146092
-1.57299e-07
0.000143627
-1.76686e-06
0.000137165
-3.70026e-06
0.000125534
-6.33798e-06
0.000106886
-1.05519e-05
7.90702e-05
-1.85035e-05
4.22887e-05
-3.45312e-05
6.89646e-06
-6.24196e-05
-7.75237e-05
6.33108e-05
0.000113693
0.00014536
0.000166863
0.00018217
0.000193255
0.000201371
0.000207305
0.000211507
0.000214208
0.000215492
0.000215335
0.000213568
0.000209868
0.00020353
0.000192978
0.000174475
0.000139943
7.75237e-05
)
;

boundaryField
{
    movingWall
    {
        type            calculated;
        value           uniform 0;
    }
    fixedWalls
    {
        type            calculated;
        value           uniform 0;
    }
    frontAndBack
    {
        type            empty;
        value           nonuniform List<scalar> 0();
    }
}


// ************************************************************************* //
