/*--------------------------------*- C++ -*----------------------------------*\
  =========                 |
  \\      /  F ield         | OpenFOAM: The Open Source CFD Toolbox
   \\    /   O peration     | Website:  https://openfoam.org
    \\  /    A nd           | Version:  8
     \\/     M anipulation  |
\*---------------------------------------------------------------------------*/
FoamFile
{
    version     2.0;
    format      ascii;
    class       volVectorField;
    location    "1";
    object      U;
}
// * * * * * * * * * * * * * * * * * * * * * * * * * * * * * * * * * * * * * //

dimensions      [0 1 -1 0 0 0 0];

internalField   nonuniform List<vector> 
400
(
(0.00120486 -0.00120703 0)
(0.00040291 0.000673619 0)
(-0.00645071 0.00286787 0)
(-0.0179687 0.00434089 0)
(-0.0321755 0.00506965 0)
(-0.0472988 0.00518585 0)
(-0.0618336 0.00480635 0)
(-0.0744977 0.00400771 0)
(-0.0841775 0.00283766 0)
(-0.0899153 0.00134575 0)
(-0.0909687 -0.000383527 0)
(-0.086932 -0.00220724 0)
(-0.0778882 -0.00391672 0)
(-0.0645435 -0.0052532 0)
(-0.048291 -0.00594652 0)
(-0.0311509 -0.00577377 0)
(-0.0155473 -0.00462913 0)
(-0.00390953 -0.00259455 0)
(0.00189203 -8.66796e-05 0)
(0.00157728 0.00152452 0)
(-0.000622639 -0.000510857 0)
(-0.008963 0.008841 0)
(-0.0300565 0.0184044 0)
(-0.0603866 0.0249865 0)
(-0.0959835 0.02824 0)
(-0.133173 0.0284706 0)
(-0.168543 0.0260749 0)
(-0.199041 0.0213991 0)
(-0.222014 0.0147515 0)
(-0.235264 0.00649984 0)
(-0.237204 -0.0028166 0)
(-0.227091 -0.01241 0)
(-0.205306 -0.021236 0)
(-0.173571 -0.0280784 0)
(-0.135019 -0.0317295 0)
(-0.0940223 -0.0312556 0)
(-0.0556711 -0.0263062 0)
(-0.0249214 -0.0174135 0)
(-0.00570008 -0.00641536 0)
(0.000312559 0.00208304 0)
(-0.0030753 0.00649828 0)
(-0.0201057 0.030333 0)
(-0.0555796 0.0520778 0)
(-0.102993 0.066904 0)
(-0.156663 0.0739985 0)
(-0.211704 0.0737897 0)
(-0.26349 0.0670367 0)
(-0.307811 0.0545341 0)
(-0.341003 0.0371122 0)
(-0.360062 0.015805 0)
(-0.362851 -0.0079454 0)
(-0.3484 -0.032155 0)
(-0.317239 -0.0543071 0)
(-0.271664 -0.0715537 0)
(-0.215834 -0.0811249 0)
(-0.15557 -0.0809232 0)
(-0.0977114 -0.0702165 0)
(-0.0490461 -0.0502806 0)
(-0.0155797 -0.025032 0)
(-0.00167174 -0.00260522 0)
(-0.0052721 0.0195511 0)
(-0.0305695 0.0642376 0)
(-0.0798785 0.101429 0)
(-0.143256 0.125956 0)
(-0.213217 0.137022 0)
(-0.283902 0.135377 0)
(-0.349851 0.122256 0)
(-0.406104 0.0990115 0)
(-0.448338 0.067132 0)
(-0.472983 0.0284934 0)
(-0.477447 -0.0143417 0)
(-0.46044 -0.0579278 0)
(-0.422362 -0.0979555 0)
(-0.365642 -0.129567 0)
(-0.29495 -0.148006 0)
(-0.217099 -0.149588 0)
(-0.140418 -0.13285 0)
(-0.0736207 -0.099606 0)
(-0.0253401 -0.0557561 0)
(-0.00346098 -0.0125729 0)
(-0.00717321 0.0379698 0)
(-0.0400225 0.109536 0)
(-0.102249 0.165041 0)
(-0.180486 0.200208 0)
(-0.265442 0.214977 0)
(-0.350406 0.210809 0)
(-0.42932 0.189607 0)
(-0.496744 0.153375 0)
(-0.54793 0.104309 0)
(-0.57887 0.0451604 0)
(-0.586499 -0.0203525 0)
(-0.569023 -0.0872542 0)
(-0.526359 -0.149298 0)
(-0.460618 -0.19934 0)
(-0.37652 -0.230198 0)
(-0.281552 -0.236003 0)
(-0.185516 -0.213898 0)
(-0.0994148 -0.165652 0)
(-0.0352332 -0.0987687 0)
(-0.00511014 -0.0275242 0)
(-0.00883641 0.061161 0)
(-0.0484982 0.165324 0)
(-0.122548 0.241961 0)
(-0.214434 0.28868 0)
(-0.313162 0.306913 0)
(-0.411299 0.299296 0)
(-0.502383 0.268655 0)
(-0.580713 0.217735 0)
(-0.641293 0.149426 0)
(-0.67977 0.0672696 0)
(-0.692556 -0.0239735 0)
(-0.677135 -0.117885 0)
(-0.632565 -0.206256 0)
(-0.560132 -0.279425 0)
(-0.464081 -0.327247 0)
(-0.352192 -0.340824 0)
(-0.235685 -0.314862 0)
(-0.12828 -0.250124 0)
(-0.0462064 -0.155197 0)
(-0.00687321 -0.0476261 0)
(-0.0103019 0.0886009 0)
(-0.0560411 0.230596 0)
(-0.140692 0.331003 0)
(-0.244811 0.390159 0)
(-0.35588 0.411709 0)
(-0.465906 0.39998 0)
(-0.568233 0.358997 0)
(-0.657125 0.292331 0)
(-0.727538 0.203492 0)
(-0.774894 0.0966186 0)
(-0.795076 -0.0227473 0)
(-0.784676 -0.147001 0)
(-0.741521 -0.266109 0)
(-0.665517 -0.367753 0)
(-0.55976 -0.438263 0)
(-0.431697 -0.464628 0)
(-0.29366 -0.437631 0)
(-0.162376 -0.355531 0)
(-0.0594141 -0.227132 0)
(-0.00904816 -0.0736663 0)
(-0.0115892 0.119794 0)
(-0.0626602 0.304262 0)
(-0.156543 0.430742 0)
(-0.271162 0.503059 0)
(-0.392672 0.527806 0)
(-0.512721 0.511538 0)
(-0.62472 0.459782 0)
(-0.723177 0.377019 0)
(-0.80327 0.26726 0)
(-0.860411 0.134957 0)
(-0.890071 -0.0139741 0)
(-0.887898 -0.171189 0)
(-0.850212 -0.325191 0)
(-0.774971 -0.46108 0)
(-0.663275 -0.561202 0)
(-0.521248 -0.607217 0)
(-0.361533 -0.58401 0)
(-0.203775 -0.48504 0)
(-0.0760843 -0.3177 0)
(-0.0119632 -0.107109 0)
(-0.0127188 0.154251 0)
(-0.0683833 0.385156 0)
(-0.169984 0.539491 0)
(-0.292952 0.625318 0)
(-0.42228 0.652962 0)
(-0.549517 0.631811 0)
(-0.668459 0.569241 0)
(-0.774228 0.470733 0)
(-0.862597 0.340664 0)
(-0.929331 0.183455 0)
(-0.969787 0.00487219 0)
(-0.978839 -0.186651 0)
(-0.951217 -0.378809 0)
(-0.882466 -0.554559 0)
(-0.77074 -0.692131 0)
(-0.619441 -0.766731 0)
(-0.439998 -0.754934 0)
(-0.254123 -0.642027 0)
(-0.0974777 -0.43097 0)
(-0.0160006 -0.150123 0)
(-0.0137585 0.191524 0)
(-0.073401 0.472092 0)
(-0.181141 0.655277 0)
(-0.309816 0.754222 0)
(-0.443385 0.783939 0)
(-0.57361 0.757359 0)
(-0.695101 0.684119 0)
(-0.804059 0.570831 0)
(-0.897353 0.422113 0)
(-0.971625 0.241997 0)
(-1.02265 0.0355026 0)
(-1.04497 -0.189672 0)
(-1.03199 -0.421397 0)
(-0.97667 -0.64144 0)
(-0.873343 -0.824408 0)
(-0.720968 -0.938409 0)
(-0.52737 -0.949167 0)
(-0.314202 -0.829158 0)
(-0.124874 -0.57164 0)
(-0.0216481 -0.205629 0)
(-0.0149038 0.231358 0)
(-0.0783049 0.564047 0)
(-0.190738 0.775878 0)
(-0.321951 0.886258 0)
(-0.45497 0.916177 0)
(-0.582231 0.883006 0)
(-0.699723 0.799129 0)
(-0.805319 0.672454 0)
(-0.897593 0.507757 0)
(-0.974725 0.308362 0)
(-1.03364 0.0779594 0)
(-1.06937 -0.177407 0)
(-1.07466 -0.447067 0)
(-1.04021 -0.713152 0)
(-0.956104 -0.948074 0)
(-0.815113 -1.11325 0)
(-0.618254 -1.16153 0)
(-0.383239 -1.0469 0)
(-0.159523 -0.744446 0)
(-0.0295795 -0.277389 0)
(-0.0166139 0.274031 0)
(-0.0844459 0.660539 0)
(-0.200545 0.898936 0)
(-0.330513 1.01695 0)
(-0.456637 1.04346 0)
(-0.572793 1.00142 0)
(-0.677158 0.906467 0)
(-0.769992 0.767979 0)
(-0.852255 0.590844 0)
(-0.924388 0.377446 0)
(-0.985336 0.129669 0)
(-1.03164 -0.148954 0)
(-1.0566 -0.45064 0)
(-1.04971 -0.759985 0)
(-0.997117 -1.04977 0)
(-0.884283 -1.27683 0)
(-0.701859 -1.38075 0)
(-0.457767 -1.2913 0)
(-0.202468 -0.953076 0)
(-0.0407666 -0.370158 0)
(-0.0198524 0.320996 0)
(-0.0944513 0.762192 0)
(-0.213833 1.02202 0)
(-0.337767 1.14055 0)
(-0.448457 1.15748 0)
(-0.542607 1.10267 0)
(-0.621757 0.995455 0)
(-0.68941 0.846721 0)
(-0.74957 0.661382 0)
(-0.80558 0.440754 0)
(-0.859194 0.184653 0)
(-0.909587 -0.106501 0)
(-0.952118 -0.42909 0)
(-0.976885 -0.772524 0)
(-0.967725 -1.11358 0)
(-0.902964 -1.40882 0)
(-0.76005 -1.58729 0)
(-0.529854 -1.55085 0)
(-0.254028 -1.19823 0)
(-0.0565984 -0.489878 0)
(-0.026505 0.376024 0)
(-0.112907 0.871385 0)
(-0.235483 1.14228 0)
(-0.346303 1.24923 0)
(-0.429468 1.24701 0)
(-0.487041 1.1737 0)
(-0.525596 1.05234 0)
(-0.552819 0.894993 0)
(-0.576255 0.706334 0)
(-0.602481 0.486516 0)
(-0.636499 0.233295 0)
(-0.680941 -0.0561564 0)
(-0.734722 -0.383111 0)
(-0.790894 -0.743799 0)
(-0.833938 -1.12312 0)
(-0.837523 -1.48389 0)
(-0.765369 -1.7518 0)
(-0.584413 -1.80258 0)
(-0.312463 -1.47408 0)
(-0.0788587 -0.643603 0)
(-0.0400064 0.447089 0)
(-0.146911 0.992488 0)
(-0.270656 1.25499 0)
(-0.355546 1.33118 0)
(-0.392815 1.29651 0)
(-0.394167 1.19767 0)
(-0.373321 1.06038 0)
(-0.342897 0.896797 0)
(-0.314022 0.71069 0)
(-0.296232 0.500863 0)
(-0.297516 0.263246 0)
(-0.324051 -0.00778117 0)
(-0.379181 -0.318144 0)
(-0.461129 -0.671749 0)
(-0.559015 -1.06505 0)
(-0.647072 -1.47488 0)
(-0.679124 -1.83572 0)
(-0.59508 -2.00835 0)
(-0.370557 -1.76268 0)
(-0.108922 -0.838529 0)
(-0.0657159 0.549495 0)
(-0.204752 1.13018 0)
(-0.318362 1.34907 0)
(-0.351061 1.36666 0)
(-0.313284 1.28375 0)
(-0.23244 1.15331 0)
(-0.131004 1.00063 0)
(-0.0262673 0.83567 0)
(0.0680907 0.659987 0)
(0.140872 0.470656 0)
(0.182389 0.262154 0)
(0.183945 0.0270746 0)
(0.138145 -0.243751 0)
(0.0405 -0.56081 0)
(-0.106547 -0.933149 0)
(-0.285258 -1.35814 0)
(-0.449452 -1.79484 0)
(-0.517787 -2.11285 0)
(-0.407795 -2.02695 0)
(-0.144228 -1.08083 0)
(-0.108545 0.712147 0)
(-0.286073 1.28078 0)
(-0.348962 1.3936 0)
(-0.27611 1.31806 0)
(-0.119751 1.17515 0)
(0.0729643 1.01432 0)
(0.272904 0.853975 0)
(0.461272 0.698183 0)
(0.624954 0.544589 0)
(0.753859 0.388135 0)
(0.839033 0.222376 0)
(0.871449 0.0395186 0)
(0.84152 -0.170447 0)
(0.739409 -0.421211 0)
(0.55741 -0.731288 0)
(0.297858 -1.12001 0)
(-0.00898058 -1.58563 0)
(-0.281515 -2.04319 0)
(-0.376055 -2.20059 0)
(-0.167788 -1.37378 0)
(-0.155427 0.978455 0)
(-0.34009 1.40045 0)
(-0.237107 1.30644 0)
(0.0334737 1.11477 0)
(0.355063 0.923776 0)
(0.674849 0.75433 0)
(0.969851 0.608677 0)
(1.22818 0.481917 0)
(1.443 0.36712 0)
(1.60941 0.257515 0)
(1.72225 0.146746 0)
(1.7749 0.0282497 0)
(1.75842 -0.106054 0)
(1.66058 -0.268168 0)
(1.46552 -0.47819 0)
(1.15698 -0.768874 0)
(0.731294 -1.18067 0)
(0.228227 -1.71338 0)
(-0.173245 -2.15951 0)
(-0.118904 -1.67503 0)
(-0.0475422 1.2695 0)
(-0.0720252 1.31688 0)
(0.411495 0.968983 0)
(0.958286 0.709572 0)
(1.42963 0.529367 0)
(1.82328 0.398443 0)
(2.1494 0.30116 0)
(2.41434 0.226151 0)
(2.62286 0.164599 0)
(2.778 0.110122 0)
(2.88023 0.0580116 0)
(2.9271 0.00428672 0)
(2.91289 -0.0552923 0)
(2.82713 -0.127355 0)
(2.65197 -0.224387 0)
(2.35853 -0.373289 0)
(1.90191 -0.630392 0)
(1.22462 -1.07922 0)
(0.452872 -1.68858 0)
(0.217519 -1.70184 0)
(1.43833 0.707232 0)
(1.83578 0.626606 0)
(2.56346 0.398297 0)
(3.13758 0.25168 0)
(3.512 0.164265 0)
(3.76921 0.109436 0)
(3.95679 0.0740075 0)
(4.09517 0.0502419 0)
(4.19532 0.0331246 0)
(4.26369 0.019525 0)
(4.30336 0.00749405 0)
(4.31484 -0.00430642 0)
(4.29628 -0.0169549 0)
(4.24291 -0.0321744 0)
(4.14493 -0.0531811 0)
(3.98118 -0.0879848 0)
(3.70244 -0.15836 0)
(3.17436 -0.316164 0)
(2.29954 -0.622763 0)
(1.66828 -0.779877 0)
)
;

boundaryField
{
    movingWall
    {
        type            fixedValue;
        value           uniform (5.07414 0 0);
    }
    fixedWalls
    {
        type            noSlip;
    }
    frontAndBack
    {
        type            empty;
    }
}


// ************************************************************************* //
