/*--------------------------------*- C++ -*----------------------------------*\
  =========                 |
  \\      /  F ield         | OpenFOAM: The Open Source CFD Toolbox
   \\    /   O peration     | Website:  https://openfoam.org
    \\  /    A nd           | Version:  9
     \\/     M anipulation  |
\*---------------------------------------------------------------------------*/
FoamFile
{
    format      ascii;
    class       volScalarField;
    location    "0.06";
    object      p;
}
// * * * * * * * * * * * * * * * * * * * * * * * * * * * * * * * * * * * * * //

dimensions      [0 2 -2 0 0 0 0];

internalField   nonuniform List<scalar> 
40
(
-0.168693
-0.339247
-0.440544
-0.507262
-0.553986
-0.335795
-0.404449
-0.469612
-0.521051
-0.559308
-0.430412
-0.462496
-0.500935
-0.536112
-0.565249
-0.48764
-0.503819
-0.525422
-0.547682
-0.568099
-0.522212
-0.530125
-0.541201
-0.553908
-0.566794
-0.542611
-0.54572
-0.550184
-0.556289
-0.563945
-0.554479
-0.555016
-0.556055
-0.558624
-0.565065
-0.561791
-0.56129
-0.561084
-0.564027
-0.575494
)
;

boundaryField
{
    movingWall
    {
        type            zeroGradient;
    }
    fixedWalls
    {
        type            zeroGradient;
    }
    frontAndBack
    {
        type            empty;
    }
    procBoundary0to1
    {
        type            processor;
        value           nonuniform List<scalar> 5(-0.564032 -0.564074 -0.561746 -0.5614 -0.564232);
    }
    procBoundary0to2
    {
        type            processor;
        value           nonuniform List<scalar> 8(-0.570909 -0.574328 -0.576509 -0.575638 -0.571002 -0.564639 -0.560678 -0.561542);
    }
}


// ************************************************************************* //
