/*--------------------------------*- C++ -*----------------------------------*\
  =========                 |
  \\      /  F ield         | OpenFOAM: The Open Source CFD Toolbox
   \\    /   O peration     | Website:  https://openfoam.org
    \\  /    A nd           | Version:  9
     \\/     M anipulation  |
\*---------------------------------------------------------------------------*/
FoamFile
{
    format      ascii;
    class       volVectorField;
    location    "0.06";
    object      U;
}
// * * * * * * * * * * * * * * * * * * * * * * * * * * * * * * * * * * * * * //

dimensions      [0 1 -1 0 0 0 0];

internalField   nonuniform List<vector> 
40
(
(-0.000102672 -0.00178152 0)
(0.000460072 -0.00199646 0)
(-0.00261869 -0.000347399 0)
(-0.00864045 0.00164401 0)
(-0.01821 0.0030986 0)
(-0.00326296 0.000666443 0)
(-0.011111 0.00441023 0)
(-0.0265038 0.0100818 0)
(-0.0478782 0.016086 0)
(-0.073393 0.0201786 0)
(-0.00512971 0.00936297 0)
(-0.0215037 0.0240173 0)
(-0.0513502 0.0359996 0)
(-0.0880763 0.047245 0)
(-0.128351 0.0541131 0)
(-0.00587871 0.0232993 0)
(-0.0284052 0.0543015 0)
(-0.0698364 0.0761848 0)
(-0.120241 0.0930789 0)
(-0.174007 0.10196 0)
(-0.00628235 0.0396125 0)
(-0.0336884 0.092956 0)
(-0.0849847 0.128106 0)
(-0.147501 0.151538 0)
(-0.21345 0.162001 0)
(-0.0068572 0.0582981 0)
(-0.0387657 0.138678 0)
(-0.098942 0.190166 0)
(-0.172349 0.221324 0)
(-0.249455 0.233227 0)
(-0.00763931 0.079565 0)
(-0.0440404 0.191151 0)
(-0.112626 0.26171 0)
(-0.196164 0.301617 0)
(-0.283637 0.314963 0)
(-0.00863051 0.103625 0)
(-0.0497569 0.250398 0)
(-0.126721 0.342301 0)
(-0.21995 0.391743 0)
(-0.317265 0.406297 0)
)
;

boundaryField
{
    movingWall
    {
        type            fixedValue;
        value           nonuniform List<vector> 0();
    }
    fixedWalls
    {
        type            noSlip;
    }
    frontAndBack
    {
        type            empty;
    }
    procBoundary0to1
    {
        type            processor;
        value           nonuniform List<vector> 5((-0.00975442 0.123572 0) (-0.0552323 0.305438 0) (-0.138707 0.421024 0) (-0.238687 0.480232 0) (-0.341955 0.495108 0));
    }
    procBoundary0to2
    {
        type            processor;
        value           nonuniform List<vector> 8((-0.0333134 0.00379537 0) (-0.102277 0.0213062 0) (-0.164749 0.0548947 0) (-0.219389 0.100743 0) (-0.268525 0.156963 0) (-0.314098 0.223004 0) (-0.357463 0.298317 0) (-0.399922 0.382563 0));
    }
}


// ************************************************************************* //
