/*--------------------------------*- C++ -*----------------------------------*\
| =========                 |                                                 |
| \\      /  F ield         | OpenFOAM: The Open Source CFD Toolbox           |
|  \\    /   O peration     | Version:  2212                                  |
|   \\  /    A nd           | Website:  www.openfoam.com                      |
|    \\/     M anipulation  |                                                 |
\*---------------------------------------------------------------------------*/
FoamFile
{
    version     2.0;
    format      ascii;
    arch        "LSB;label=32;scalar=64";
    class       volVectorField;
    location    "0.5";
    object      U;
}
// * * * * * * * * * * * * * * * * * * * * * * * * * * * * * * * * * * * * * //

dimensions      [0 1 -1 0 0 0 0];

internalField   nonuniform List<vector> 
46
(
(0.358535 0 0)
(0.328063 0 0)
(0.288484 0 0)
(0.239236 0 0)
(0.420472 0 0)
(0.387924 0 0)
(0.34463 0 0)
(0.289188 0 0)
(0.220615 0 0)
(0.139213 0 0)
(0.0477489 0 0)
(0.491815 0 0)
(0.458537 0 0)
(0.412929 0 0)
(0.352273 0 0)
(0.273804 0 0)
(0.176019 0 0)
(0.0612413 0 0)
(0.573292 0 0)
(0.541482 0 0)
(0.496282 0 0)
(0.433173 0 0)
(0.346311 0 0)
(0.22982 0 0)
(0.0824388 0 0)
(0.665017 0 0)
(0.637822 0 0)
(0.597544 0 0)
(0.53783 0 0)
(0.448447 0 0)
(0.314514 0 0)
(0.121132 0 0)
(0.766004 0 0)
(0.747247 0 0)
(0.718246 0 0)
(0.672157 0 0)
(0.595136 0 0)
(0.458655 0 0)
(0.20871 0 0)
(0.8737 0 0)
(0.866918 0 0)
(0.856037 0 0)
(0.837417 0 0)
(0.801284 0 0)
(0.716262 0 0)
(0.463763 0 0)
)
;

boundaryField
{
    movingWall
    {
        type            fixedValue;
        value           uniform (0.928803 0 0);
    }
    fixedWalls
    {
        type            noSlip;
    }
    frontAndBack
    {
        type            empty;
    }
    procBoundary8to4
    {
        type            processor;
        value           uniform (0.380612 0 0);
    }
    procBoundary8to5
    {
        type            processor;
        value           nonuniform List<vector> 8((0.305006 0 0) (0.277316 0 0) (0.242013 0 0) (0.199024 0 0) (0.180257 0 0) (0.180257 0 0) (0.112473 0 0) (0.0382905 0 0));
    }
    procBoundary8to7
    {
        type            processor;
        value           nonuniform List<vector> 6((0.443622 0 0) (0.514965 0 0) (0.594861 0 0) (0.682953 0 0) (0.778053 0 0) (0.877974 0 0));
    }
}


// ************************************************************************* //
