/*--------------------------------*- C++ -*----------------------------------*\
  =========                 |
  \\      /  F ield         | OpenFOAM: The Open Source CFD Toolbox
   \\    /   O peration     | Website:  https://openfoam.org
    \\  /    A nd           | Version:  8
     \\/     M anipulation  |
\*---------------------------------------------------------------------------*/
FoamFile
{
    version     2.0;
    format      ascii;
    class       volScalarField;
    location    "1";
    object      p;
}
// * * * * * * * * * * * * * * * * * * * * * * * * * * * * * * * * * * * * * //

dimensions      [0 2 -2 0 0 0 0];

internalField   nonuniform List<scalar> 
400
(
-0.0991714
-0.198151
-0.251293
-0.276669
-0.280302
-0.268087
-0.243147
-0.20607
-0.159501
-0.10643
-0.0490898
0.0103344
0.069077
0.123996
0.172217
0.211693
0.24143
0.261413
0.272423
0.276085
-0.198538
-0.23901
-0.268536
-0.283684
-0.282669
-0.267814
-0.241473
-0.204337
-0.158592
-0.106596
-0.0501648
0.0086771
0.0671497
0.121978
0.170095
0.20928
0.238463
0.257572
0.26697
0.266617
-0.250231
-0.268438
-0.280242
-0.284644
-0.277315
-0.259967
-0.233898
-0.198802
-0.156226
-0.107948
-0.0551166
0.000808387
0.0572417
0.11068
0.157577
0.195283
0.222617
0.239721
0.247162
0.245409
-0.273235
-0.280734
-0.280738
-0.276543
-0.263919
-0.244791
-0.220044
-0.188549
-0.151222
-0.109226
-0.0627999
-0.012462
0.0396993
0.0900475
0.134483
0.169795
0.19455
0.209015
0.214102
0.210848
-0.278061
-0.279092
-0.271644
-0.261052
-0.244093
-0.223545
-0.200461
-0.173142
-0.14202
-0.10794
-0.0703463
-0.0285858
0.0161734
0.0605481
0.100159
0.131409
0.152631
0.164002
0.166736
0.162264
-0.270373
-0.267667
-0.255758
-0.241078
-0.221142
-0.199766
-0.178667
-0.155779
-0.13103
-0.105464
-0.0783289
-0.0478487
-0.0137841
0.0214265
0.0537015
0.0793488
0.0964256
0.104721
0.105691
0.100945
-0.2558
-0.251863
-0.238294
-0.22225
-0.201281
-0.179994
-0.161203
-0.142792
-0.123698
-0.105619
-0.0887444
-0.0708386
-0.0499872
-0.0268061
-0.00414267
0.0147783
0.0277426
0.0337348
0.0341515
0.0304313
-0.239669
-0.236827
-0.224535
-0.210324
-0.191017
-0.171295
-0.155346
-0.141958
-0.127907
-0.115228
-0.106385
-0.100093
-0.0930765
-0.083388
-0.0715344
-0.0594845
-0.0496249
-0.0442914
-0.0428261
-0.0445778
-0.224412
-0.224925
-0.21692
-0.208244
-0.194475
-0.179135
-0.167187
-0.160744
-0.152968
-0.144346
-0.140211
-0.142145
-0.146752
-0.149455
-0.147558
-0.140925
-0.131895
-0.124688
-0.12051
-0.120499
-0.208256
-0.213816
-0.212778
-0.213457
-0.210348
-0.204567
-0.198692
-0.202495
-0.20538
-0.202783
-0.201514
-0.207421
-0.219014
-0.23014
-0.234834
-0.230278
-0.218417
-0.205835
-0.197127
-0.196708
-0.185065
-0.196209
-0.204669
-0.218437
-0.231756
-0.244128
-0.248099
-0.265462
-0.285332
-0.294994
-0.298922
-0.306643
-0.320327
-0.334273
-0.34036
-0.333125
-0.31367
-0.290993
-0.274659
-0.274452
-0.145671
-0.162256
-0.184344
-0.216157
-0.250973
-0.29308
-0.314424
-0.347608
-0.388544
-0.417568
-0.432721
-0.444038
-0.457282
-0.469152
-0.471506
-0.457083
-0.425301
-0.386509
-0.355991
-0.351961
-0.0812406
-0.104278
-0.148058
-0.207347
-0.266859
-0.347371
-0.39818
-0.45062
-0.511859
-0.56253
-0.59397
-0.612572
-0.62513
-0.631621
-0.626693
-0.603063
-0.55664
-0.495557
-0.438973
-0.418598
0.0129998
-0.020924
-0.0965229
-0.197938
-0.285994
-0.398596
-0.487289
-0.567335
-0.649485
-0.721251
-0.771598
-0.799324
-0.807299
-0.801281
-0.784215
-0.751807
-0.693412
-0.607632
-0.510074
-0.452723
0.138444
0.0835946
-0.0259414
-0.174961
-0.303453
-0.425948
-0.541612
-0.658087
-0.774339
-0.877888
-0.957388
-0.999782
-0.98362
-0.941376
-0.896551
-0.85219
-0.788289
-0.684835
-0.539603
-0.425697
0.302263
0.209213
0.0779396
-0.0842679
-0.26589
-0.397375
-0.527653
-0.689841
-0.875342
-1.05212
-1.18705
-1.24026
-1.18284
-1.05161
-0.917847
-0.826355
-0.753648
-0.651845
-0.480354
-0.310006
0.525124
0.382655
0.2392
0.116666
-0.0926625
-0.292242
-0.515455
-0.782882
-1.07167
-1.3336
-1.51618
-1.57686
-1.4965
-1.26383
-0.954822
-0.668887
-0.4832
-0.390175
-0.265345
-0.0888498
0.837293
0.690076
0.543451
0.36674
0.0752125
-0.269919
-0.665285
-1.06747
-1.41606
-1.67874
-1.84473
-1.90856
-1.85967
-1.66493
-1.27413
-0.695407
-0.132133
0.200104
0.247554
0.314946
1.45436
1.25533
0.951597
0.481914
-0.106511
-0.645461
-1.08636
-1.44577
-1.73069
-1.94182
-2.08101
-2.14809
-2.13358
-2.00921
-1.7198
-1.1792
-0.310852
0.604504
1.1026
1.19921
2.09968
1.62283
0.83015
-0.00152324
-0.584957
-1.00269
-1.34173
-1.6276
-1.86056
-2.03844
-2.16109
-2.22725
-2.2284
-2.14413
-1.9414
-1.57518
-0.94455
0.126373
1.46149
2.18925
)
;

boundaryField
{
    movingWall
    {
        type            zeroGradient;
    }
    fixedWalls
    {
        type            zeroGradient;
    }
    frontAndBack
    {
        type            empty;
    }
}


// ************************************************************************* //
