/*--------------------------------*- C++ -*----------------------------------*\
  =========                 |
  \\      /  F ield         | OpenFOAM: The Open Source CFD Toolbox
   \\    /   O peration     | Website:  https://openfoam.org
    \\  /    A nd           | Version:  8
     \\/     M anipulation  |
\*---------------------------------------------------------------------------*/
FoamFile
{
    version     2.0;
    format      ascii;
    class       volVectorField;
    location    "1";
    object      U;
}
// * * * * * * * * * * * * * * * * * * * * * * * * * * * * * * * * * * * * * //

dimensions      [0 1 -1 0 0 0 0];

internalField   nonuniform List<vector> 
400
(
(0.00120485 -0.00120697 0)
(0.000402932 0.000673608 0)
(-0.00645049 0.00286779 0)
(-0.0179682 0.00434076 0)
(-0.0321745 0.0050695 0)
(-0.0472974 0.00518569 0)
(-0.0618317 0.0048062 0)
(-0.0744955 0.00400758 0)
(-0.0841749 0.00283756 0)
(-0.0899125 0.00134569 0)
(-0.0909658 -0.000383526 0)
(-0.0869293 -0.00220718 0)
(-0.0778858 -0.0039166 0)
(-0.0645415 -0.00525303 0)
(-0.0482895 -0.00594632 0)
(-0.03115 -0.00577359 0)
(-0.0155469 -0.00462899 0)
(-0.00390949 -0.00259448 0)
(0.00189194 -8.66953e-05 0)
(0.00157722 0.00152447 0)
(-0.000622602 -0.000510822 0)
(-0.00896269 0.00884074 0)
(-0.0300555 0.0184039 0)
(-0.0603847 0.0249858 0)
(-0.0959806 0.0282391 0)
(-0.133169 0.0284697 0)
(-0.168538 0.0260741 0)
(-0.199035 0.0213984 0)
(-0.222007 0.014751 0)
(-0.235257 0.00649958 0)
(-0.237196 -0.00281656 0)
(-0.227084 -0.0124096 0)
(-0.2053 -0.0212354 0)
(-0.173565 -0.0280775 0)
(-0.135015 -0.0317285 0)
(-0.0940196 -0.0312546 0)
(-0.0556696 -0.0263054 0)
(-0.0249207 -0.017413 0)
(-0.0057 -0.00641524 0)
(0.000312525 0.00208294 0)
(-0.00307519 0.00649807 0)
(-0.020105 0.0303321 0)
(-0.0555778 0.0520762 0)
(-0.10299 0.066902 0)
(-0.156658 0.0739963 0)
(-0.211698 0.0737875 0)
(-0.263482 0.0670346 0)
(-0.307801 0.0545323 0)
(-0.340993 0.0371109 0)
(-0.360051 0.0158044 0)
(-0.362839 -0.00794524 0)
(-0.348389 -0.032154 0)
(-0.317229 -0.0543054 0)
(-0.271656 -0.0715513 0)
(-0.215827 -0.0811223 0)
(-0.155565 -0.0809206 0)
(-0.0977086 -0.0702144 0)
(-0.0490448 -0.0502791 0)
(-0.0155794 -0.0250314 0)
(-0.00167173 -0.00260525 0)
(-0.00527192 0.0195504 0)
(-0.0305685 0.0642356 0)
(-0.0798759 0.101426 0)
(-0.143252 0.125952 0)
(-0.21321 0.137018 0)
(-0.283894 0.135372 0)
(-0.349841 0.122252 0)
(-0.406091 0.0990084 0)
(-0.448324 0.0671298 0)
(-0.472969 0.0284923 0)
(-0.477432 -0.0143414 0)
(-0.460426 -0.057926 0)
(-0.422348 -0.0979524 0)
(-0.365631 -0.129563 0)
(-0.294941 -0.148001 0)
(-0.217092 -0.149583 0)
(-0.140414 -0.132845 0)
(-0.0736186 -0.099603 0)
(-0.0253394 -0.0557546 0)
(-0.00346091 -0.0125727 0)
(-0.00717297 0.0379685 0)
(-0.0400212 0.109533 0)
(-0.102246 0.165036 0)
(-0.180481 0.200202 0)
(-0.265434 0.214971 0)
(-0.350395 0.210802 0)
(-0.429307 0.189601 0)
(-0.496729 0.15337 0)
(-0.547913 0.104306 0)
(-0.578852 0.0451587 0)
(-0.586481 -0.0203521 0)
(-0.569005 -0.0872516 0)
(-0.526342 -0.149293 0)
(-0.460603 -0.199333 0)
(-0.376508 -0.23019 0)
(-0.281543 -0.235996 0)
(-0.18551 -0.213891 0)
(-0.0994118 -0.165647 0)
(-0.0352322 -0.0987659 0)
(-0.00511003 -0.0275236 0)
(-0.00883611 0.061159 0)
(-0.0484967 0.165319 0)
(-0.122544 0.241953 0)
(-0.214427 0.288672 0)
(-0.313153 0.306903 0)
(-0.411287 0.299287 0)
(-0.502368 0.268646 0)
(-0.580695 0.217728 0)
(-0.641273 0.149421 0)
(-0.679749 0.0672669 0)
(-0.692534 -0.0239733 0)
(-0.677113 -0.117882 0)
(-0.632544 -0.20625 0)
(-0.560113 -0.279415 0)
(-0.464066 -0.327236 0)
(-0.35218 -0.340813 0)
(-0.235677 -0.314852 0)
(-0.128276 -0.250116 0)
(-0.0462051 -0.155193 0)
(-0.00687304 -0.047625 0)
(-0.0103015 0.0885981 0)
(-0.0560394 0.230589 0)
(-0.140687 0.330993 0)
(-0.244803 0.390147 0)
(-0.35587 0.411696 0)
(-0.465892 0.399968 0)
(-0.568216 0.358986 0)
(-0.657105 0.292321 0)
(-0.727516 0.203485 0)
(-0.77487 0.0966146 0)
(-0.795051 -0.0227476 0)
(-0.78465 -0.146997 0)
(-0.741496 -0.266101 0)
(-0.665494 -0.367741 0)
(-0.559741 -0.438248 0)
(-0.431682 -0.464612 0)
(-0.29365 -0.437616 0)
(-0.16237 -0.35552 0)
(-0.0594122 -0.227125 0)
(-0.00904791 -0.0736644 0)
(-0.0115888 0.11979 0)
(-0.0626584 0.304253 0)
(-0.156538 0.430729 0)
(-0.271155 0.503044 0)
(-0.39266 0.52779 0)
(-0.512707 0.511522 0)
(-0.624702 0.459768 0)
(-0.723156 0.377007 0)
(-0.803245 0.26725 0)
(-0.860384 0.134951 0)
(-0.890042 -0.0139754 0)
(-0.887869 -0.171185 0)
(-0.850184 -0.325181 0)
(-0.774944 -0.461066 0)
(-0.663251 -0.561183 0)
(-0.521229 -0.607197 0)
(-0.36152 -0.58399 0)
(-0.203768 -0.485024 0)
(-0.0760817 -0.31769 0)
(-0.0119629 -0.107106 0)
(-0.0127184 0.154246 0)
(-0.0683815 0.385144 0)
(-0.169979 0.539475 0)
(-0.292944 0.625299 0)
(-0.422269 0.652943 0)
(-0.549502 0.631792 0)
(-0.668441 0.569223 0)
(-0.774206 0.470717 0)
(-0.862571 0.340651 0)
(-0.929303 0.183446 0)
(-0.969757 0.00486939 0)
(-0.978807 -0.186648 0)
(-0.951185 -0.378798 0)
(-0.882435 -0.554542 0)
(-0.770712 -0.692108 0)
(-0.619418 -0.766705 0)
(-0.439982 -0.754908 0)
(-0.254113 -0.642005 0)
(-0.0974742 -0.430956 0)
(-0.0160001 -0.150118 0)
(-0.0137582 0.191518 0)
(-0.0733992 0.472078 0)
(-0.181137 0.655258 0)
(-0.309808 0.7542 0)
(-0.443374 0.783916 0)
(-0.573596 0.757336 0)
(-0.695082 0.684098 0)
(-0.804037 0.570812 0)
(-0.897328 0.422097 0)
(-0.971597 0.241985 0)
(-1.02261 0.0354976 0)
(-1.04494 -0.18967 0)
(-1.03196 -0.421386 0)
(-0.976635 -0.641421 0)
(-0.873311 -0.824382 0)
(-0.72094 -0.938377 0)
(-0.527349 -0.949134 0)
(-0.31419 -0.829129 0)
(-0.124869 -0.571621 0)
(-0.0216473 -0.205622 0)
(-0.0149035 0.231352 0)
(-0.0783032 0.564031 0)
(-0.190734 0.775856 0)
(-0.321944 0.886233 0)
(-0.454959 0.91615 0)
(-0.582217 0.88298 0)
(-0.699706 0.799104 0)
(-0.805298 0.672431 0)
(-0.897569 0.507737 0)
(-0.974698 0.308348 0)
(-1.03361 0.0779516 0)
(-1.06933 -0.177407 0)
(-1.07462 -0.447057 0)
(-1.04018 -0.713132 0)
(-0.956069 -0.948045 0)
(-0.815082 -1.11321 0)
(-0.618229 -1.16149 0)
(-0.383223 -1.04687 0)
(-0.159517 -0.744419 0)
(-0.0295784 -0.277379 0)
(-0.0166136 0.274024 0)
(-0.0844443 0.660521 0)
(-0.200542 0.898912 0)
(-0.330507 1.01692 0)
(-0.456628 1.04343 0)
(-0.572781 1.00139 0)
(-0.677143 0.906438 0)
(-0.769974 0.767953 0)
(-0.852234 0.590821 0)
(-0.924364 0.377428 0)
(-0.985309 0.129658 0)
(-1.03161 -0.148956 0)
(-1.05657 -0.450632 0)
(-1.04967 -0.759966 0)
(-0.997082 -1.04974 0)
(-0.88425 -1.27679 0)
(-0.701831 -1.3807 0)
(-0.457749 -1.29126 0)
(-0.202459 -0.953041 0)
(-0.0407648 -0.370145 0)
(-0.0198521 0.320987 0)
(-0.0944499 0.762173 0)
(-0.21383 1.02199 0)
(-0.337762 1.14052 0)
(-0.448449 1.15745 0)
(-0.542598 1.10263 0)
(-0.621745 0.995424 0)
(-0.689395 0.846692 0)
(-0.749553 0.661357 0)
(-0.80556 0.440733 0)
(-0.859172 0.184639 0)
(-0.909562 -0.106507 0)
(-0.95209 -0.429085 0)
(-0.976855 -0.772506 0)
(-0.967692 -1.11355 0)
(-0.902931 -1.40878 0)
(-0.760021 -1.58723 0)
(-0.529833 -1.55079 0)
(-0.254017 -1.19818 0)
(-0.0565959 -0.48986 0)
(-0.0265046 0.376015 0)
(-0.112906 0.871364 0)
(-0.23548 1.14225 0)
(-0.346298 1.2492 0)
(-0.429462 1.24698 0)
(-0.487034 1.17367 0)
(-0.525587 1.05231 0)
(-0.552809 0.894963 0)
(-0.576244 0.706306 0)
(-0.602469 0.486493 0)
(-0.636485 0.233279 0)
(-0.680925 -0.0561648 0)
(-0.734703 -0.383109 0)
(-0.790871 -0.743784 0)
(-0.833912 -1.12309 0)
(-0.837495 -1.48385 0)
(-0.765341 -1.75174 0)
(-0.584391 -1.80251 0)
(-0.31245 -1.47402 0)
(-0.0788551 -0.643578 0)
(-0.0400057 0.447079 0)
(-0.146909 0.992465 0)
(-0.270652 1.25496 0)
(-0.35554 1.33115 0)
(-0.392809 1.29648 0)
(-0.394161 1.19764 0)
(-0.373315 1.06035 0)
(-0.342892 0.896766 0)
(-0.314018 0.710662 0)
(-0.296228 0.500839 0)
(-0.297512 0.263228 0)
(-0.324047 -0.00779166 0)
(-0.379175 -0.318145 0)
(-0.46112 -0.671738 0)
(-0.559002 -1.06502 0)
(-0.647053 -1.47483 0)
(-0.679102 -1.83566 0)
(-0.595059 -2.00827 0)
(-0.370542 -1.76261 0)
(-0.108918 -0.838496 0)
(-0.0657147 0.549483 0)
(-0.204748 1.13015 0)
(-0.318356 1.34904 0)
(-0.351055 1.36663 0)
(-0.313278 1.28372 0)
(-0.232436 1.15327 0)
(-0.131002 1.0006 0)
(-0.0262684 0.83564 0)
(0.0680868 0.65996 0)
(0.140865 0.470633 0)
(0.18238 0.262136 0)
(0.183935 0.0270636 0)
(0.138135 -0.243753 0)
(0.0404923 -0.560803 0)
(-0.10655 -0.933128 0)
(-0.285255 -1.35811 0)
(-0.449441 -1.79479 0)
(-0.517771 -2.11277 0)
(-0.40778 -2.02687 0)
(-0.144222 -1.08078 0)
(-0.108542 0.712132 0)
(-0.286066 1.28075 0)
(-0.348953 1.39357 0)
(-0.276102 1.31803 0)
(-0.119747 1.17512 0)
(0.0729649 1.01429 0)
(0.272899 0.853947 0)
(0.461262 0.698157 0)
(0.624938 0.544567 0)
(0.753838 0.388116 0)
(0.839008 0.222361 0)
(0.871421 0.0395089 0)
(0.84149 -0.17045 0)
(0.73938 -0.421206 0)
(0.557384 -0.731273 0)
(0.297839 -1.11998 0)
(-0.00898854 -1.58558 0)
(-0.281512 -2.04313 0)
(-0.376044 -2.20051 0)
(-0.167782 -1.37373 0)
(-0.155422 0.978433 0)
(-0.340079 1.40042 0)
(-0.237096 1.30641 0)
(0.0334788 1.11474 0)
(0.355061 0.92375 0)
(0.674838 0.754306 0)
(0.969832 0.608656 0)
(1.22815 0.481898 0)
(1.44297 0.367104 0)
(1.60937 0.257502 0)
(1.72221 0.146736 0)
(1.77485 0.0282433 0)
(1.75836 -0.106056 0)
(1.66053 -0.268164 0)
(1.46547 -0.47818 0)
(1.15693 -0.768856 0)
(0.73126 -1.18064 0)
(0.22821 -1.71332 0)
(-0.173245 -2.15944 0)
(-0.118902 -1.67497 0)
(-0.0475378 1.26947 0)
(-0.0720178 1.31685 0)
(0.411492 0.968958 0)
(0.95827 0.709552 0)
(1.4296 0.52935 0)
(1.82324 0.398429 0)
(2.14935 0.301148 0)
(2.41428 0.226141 0)
(2.62279 0.164591 0)
(2.77792 0.110116 0)
(2.88015 0.0580072 0)
(2.92701 0.00428431 0)
(2.91281 -0.0552926 0)
(2.82704 -0.127353 0)
(2.65189 -0.224382 0)
(2.35845 -0.37328 0)
(1.90185 -0.630376 0)
(1.22457 -1.07919 0)
(0.45285 -1.68853 0)
(0.217507 -1.70179 0)
(1.43829 0.707212 0)
(1.83573 0.626589 0)
(2.56339 0.398285 0)
(3.13749 0.251672 0)
(3.5119 0.164259 0)
(3.7691 0.109432 0)
(3.95667 0.0740042 0)
(4.09505 0.0502394 0)
(4.1952 0.0331227 0)
(4.26356 0.0195237 0)
(4.30323 0.00749329 0)
(4.31471 -0.00430663 0)
(4.29615 -0.0169546 0)
(4.24278 -0.0321735 0)
(4.1448 -0.0531795 0)
(3.98106 -0.0879825 0)
(3.70233 -0.158356 0)
(3.17426 -0.316157 0)
(2.29947 -0.622746 0)
(1.66822 -0.779854 0)
)
;

boundaryField
{
    movingWall
    {
        type            fixedValue;
        value           uniform (5.07399 0 0);
    }
    fixedWalls
    {
        type            noSlip;
    }
    frontAndBack
    {
        type            empty;
    }
}


// ************************************************************************* //
