/*--------------------------------*- C++ -*----------------------------------*\
| =========                 |                                                 |
| \\      /  F ield         | OpenFOAM: The Open Source CFD Toolbox           |
|  \\    /   O peration     | Version:  2212                                  |
|   \\  /    A nd           | Website:  www.openfoam.com                      |
|    \\/     M anipulation  |                                                 |
\*---------------------------------------------------------------------------*/
FoamFile
{
    version     2.0;
    format      ascii;
    arch        "LSB;label=32;scalar=64";
    class       volVectorField;
    location    "0.4";
    object      U;
}
// * * * * * * * * * * * * * * * * * * * * * * * * * * * * * * * * * * * * * //

dimensions      [0 1 -1 0 0 0 0];

internalField   nonuniform List<vector> 
45
(
(0.031218 0 0)
(0.0920928 0 0)
(0.148644 0 0)
(0.0382784 0 0)
(0.112437 0 0)
(0.180198 0 0)
(0.239154 0 0)
(0.288381 0 0)
(0.32794 0 0)
(0.0477383 0 0)
(0.139182 0 0)
(0.220562 0 0)
(0.289115 0 0)
(0.344538 0 0)
(0.387816 0 0)
(0.0612322 0 0)
(0.175992 0 0)
(0.273759 0 0)
(0.352211 0 0)
(0.412851 0 0)
(0.458444 0 0)
(0.0824314 0 0)
(0.229798 0 0)
(0.346274 0 0)
(0.433123 0 0)
(0.496219 0 0)
(0.541408 0 0)
(0.121127 0 0)
(0.314497 0 0)
(0.44842 0 0)
(0.537793 0 0)
(0.597498 0 0)
(0.637768 0 0)
(0.208707 0 0)
(0.458645 0 0)
(0.595119 0 0)
(0.672134 0 0)
(0.718218 0 0)
(0.747214 0 0)
(0.463762 0 0)
(0.716258 0 0)
(0.801278 0 0)
(0.837409 0 0)
(0.856028 0 0)
(0.866907 0 0)
)
;

boundaryField
{
    movingWall
    {
        type            fixedValue;
        value           uniform (0.928803 0 0);
    }
    fixedWalls
    {
        type            noSlip;
    }
    frontAndBack
    {
        type            empty;
    }
    procBoundary6to3
    {
        type            processor;
        value           nonuniform List<vector> 7((0.0257201 0 0) (0.0760766 0 0) (0.123364 0 0) (0.198933 0 0) (0.198933 0 0) (0.241901 0 0) (0.277185 0 0));
    }
    procBoundary6to7
    {
        type            processor;
        value           nonuniform List<vector> 7((0.3584 0 0) (0.420353 0 0) (0.491714 0 0) (0.573212 0 0) (0.664958 0 0) (0.765968 0 0) (0.873688 0 0));
    }
}


// ************************************************************************* //
