/*--------------------------------*- C++ -*----------------------------------*\
  =========                 |
  \\      /  F ield         | OpenFOAM: The Open Source CFD Toolbox
   \\    /   O peration     | Website:  https://openfoam.org
    \\  /    A nd           | Version:  9
     \\/     M anipulation  |
\*---------------------------------------------------------------------------*/
FoamFile
{
    format      ascii;
    class       volVectorField;
    location    "0.07";
    object      U;
}
// * * * * * * * * * * * * * * * * * * * * * * * * * * * * * * * * * * * * * //

dimensions      [0 1 -1 0 0 0 0];

internalField   nonuniform List<vector> 
40
(
(-0.490417 -0.367087 0)
(-0.382499 -0.40049 0)
(-0.576957 -0.470066 0)
(-0.457544 -0.521682 0)
(-0.321085 -0.516845 0)
(-0.18328 -0.444725 0)
(-0.0690485 -0.302982 0)
(-0.0105819 -0.106052 0)
(-0.668074 -0.579966 0)
(-0.540558 -0.656795 0)
(-0.387759 -0.663875 0)
(-0.226595 -0.58273 0)
(-0.0877478 -0.404661 0)
(-0.0142391 -0.144818 0)
(-0.757718 -0.692001 0)
(-0.627796 -0.802418 0)
(-0.462557 -0.830324 0)
(-0.278372 -0.745987 0)
(-0.111724 -0.529757 0)
(-0.0193553 -0.19451 0)
(-0.834834 -0.79944 0)
(-0.711651 -0.952419 0)
(-0.541759 -1.0128 0)
(-0.338266 -0.935469 0)
(-0.142112 -0.682718 0)
(-0.026602 -0.25847 0)
(-0.882091 -0.892389 0)
(-0.778427 -1.09594 0)
(-0.617348 -1.20303 0)
(-0.404128 -1.14832 0)
(-0.180152 -0.866836 0)
(-0.0369417 -0.34103 0)
(-0.874495 -0.957543 0)
(-0.807015 -1.21724 0)
(-0.674845 -1.38562 0)
(-0.469925 -1.37573 0)
(-0.226677 -1.08295 0)
(-0.0518032 -0.44766 0)
(-0.780213 -0.980599 0)
(-0.767314 -1.295 0)
)
;

boundaryField
{
    movingWall
    {
        type            fixedValue;
        value           nonuniform List<vector> 0();
    }
    fixedWalls
    {
        type            noSlip;
    }
    frontAndBack
    {
        type            empty;
    }
    procBoundary8to5
    {
        type            processor;
        value           nonuniform List<vector> 4((-0.562033 -0.291618 0) (-0.651325 -0.366985 0) (-0.741249 -0.443457 0) (-0.824226 -0.516487 0));
    }
    procBoundary8to6
    {
        type            processor;
        value           nonuniform List<vector> 4((-0.887788 -0.58054 0) (-0.913165 -0.628421 0) (-0.875162 -0.651863 0) (-0.743181 -0.643423 0));
    }
    procBoundary8to7
    {
        type            processor;
        value           nonuniform List<vector> 7((-0.399564 -0.266311 0) (-0.30755 -0.286476 0) (-0.256373 -0.379113 0) (-0.256373 -0.379113 0) (-0.14387 -0.320745 0) (-0.0531884 -0.214859 0) (-0.00785859 -0.073618 0));
    }
    procBoundary8to9
    {
        type            processor;
        value           nonuniform List<vector> 7((-0.672991 -1.4967 0) (-0.508874 -1.55548 0) (-0.271971 -1.28944 0) (-0.0706142 -0.568195 0) (-0.551605 -0.927554 0) (-0.672991 -1.4967 0) (-0.608187 -1.27393 0));
    }
}


// ************************************************************************* //
