/*--------------------------------*- C++ -*----------------------------------*\
  =========                 |
  \\      /  F ield         | OpenFOAM: The Open Source CFD Toolbox
   \\    /   O peration     | Website:  https://openfoam.org
    \\  /    A nd           | Version:  9
     \\/     M anipulation  |
\*---------------------------------------------------------------------------*/
FoamFile
{
    format      ascii;
    class       volVectorField;
    location    "0.01";
    object      U;
}
// * * * * * * * * * * * * * * * * * * * * * * * * * * * * * * * * * * * * * //

dimensions      [0 1 -1 0 0 0 0];

internalField   nonuniform List<vector> 
40
(
(-0.316319 -0.519434 0)
(-0.224843 -0.547006 0)
(-0.113982 -0.465844 0)
(-0.0292064 -0.216477 0)
(-0.429748 -0.372695 0)
(-0.412257 -0.485653 0)
(-0.367396 -0.592637 0)
(-0.281137 -0.653116 0)
(-0.156611 -0.586594 0)
(-0.0444485 -0.291622 0)
(-0.382849 -0.37039 0)
(-0.398331 -0.503631 0)
(-0.389497 -0.646499 0)
(-0.331911 -0.75645 0)
(-0.210582 -0.730715 0)
(-0.0674127 -0.400291 0)
(-0.206165 -0.332507 0)
(-0.269201 -0.476531 0)
(-0.323518 -0.652559 0)
(-0.335751 -0.826707 0)
(-0.260511 -0.884569 0)
(-0.095671 -0.559175 0)
(0.211723 -0.248501 0)
(0.0951772 -0.380549 0)
(-0.0463708 -0.567252 0)
(-0.186388 -0.801604 0)
(-0.244437 -0.996202 0)
(-0.103991 -0.778376 0)
(1.03025 -0.129088 0)
(0.883996 -0.215947 0)
(0.666593 -0.361806 0)
(0.359036 -0.597147 0)
(0.0456071 -0.913521 0)
(0.0420973 -0.928793 0)
(2.37402 -0.0326598 0)
(2.28207 -0.0601331 0)
(2.11482 -0.113358 0)
(1.79303 -0.216768 0)
(1.30579 -0.394015 0)
(0.995725 -0.476741 0)
)
;

boundaryField
{
    movingWall
    {
        type            fixedValue;
        value           uniform (3.26998 0 0);
    }
    fixedWalls
    {
        type            noSlip;
    }
    frontAndBack
    {
        type            empty;
    }
    procBoundary9to6
    {
        type            processor;
        value           nonuniform List<vector> 6((-0.0987953 -0.0621895 0) (-0.0823385 -0.0598352 0) (-0.0346712 -0.0516477 0) (0.0678973 -0.0367972 0) (0.257609 -0.0179852 0) (0.556348 -0.00429162 0));
    }
    procBoundary9to8
    {
        type            processor;
        value           nonuniform List<vector> 7((-0.0596501 -0.10131 0) (-0.0401292 -0.10296 0) (-0.0189294 -0.0843009 0) (-0.00443944 -0.0373601 0) (-0.094414 -0.0808224 0) (-0.0860024 -0.101551 0) (-0.0860024 -0.101551 0));
    }
}


// ************************************************************************* //
