/*--------------------------------*- C++ -*----------------------------------*\
| =========                 |                                                 |
| \\      /  F ield         | OpenFOAM: The Open Source CFD Toolbox           |
|  \\    /   O peration     | Version:  2212                                  |
|   \\  /    A nd           | Website:  www.openfoam.com                      |
|    \\/     M anipulation  |                                                 |
\*---------------------------------------------------------------------------*/
FoamFile
{
    version     2.0;
    format      ascii;
    arch        "LSB;label=32;scalar=64";
    class       volVectorField;
    location    "0.2";
    object      U;
}
// * * * * * * * * * * * * * * * * * * * * * * * * * * * * * * * * * * * * * //

dimensions      [0 1 -1 0 0 0 0];

internalField   nonuniform List<vector> 
44
(
(0.000582497 0 0)
(0.00173233 0 0)
(0.00283723 0 0)
(0.00386908 0 0)
(0.0048022 0 0)
(0.00561414 0 0)
(0.00628603 0 0)
(0.00176525 0 0)
(0.00524963 0 0)
(0.00859747 0 0)
(0.0117233 0 0)
(0.0145494 0 0)
(0.0170078 0 0)
(0.0190416 0 0)
(0.00300184 0 0)
(0.00892658 0 0)
(0.0146176 0 0)
(0.0199291 0 0)
(0.0247287 0 0)
(0.0289016 0 0)
(0.0323518 0 0)
(0.00433012 0 0)
(0.0128752 0 0)
(0.0210796 0 0)
(0.0287318 0 0)
(0.0356409 0 0)
(0.0416424 0 0)
(0.0466 0 0)
(0.00579099 0 0)
(0.0172164 0 0)
(0.0281794 0 0)
(0.0383942 0 0)
(0.047606 0 0)
(0.0555972 0 0)
(0.0621896 0 0)
(0.00743016 0 0)
(0.022085 0 0)
(0.0361338 0 0)
(0.0492054 0 0)
(0.0609729 0 0)
(0.0711636 0 0)
(0.0795539 0 0)
(0.088779 0 0)
(0.0991662 0 0)
)
;

boundaryField
{
    movingWall
    {
        type            fixedValue;
        value           nonuniform List<vector> 0();
    }
    fixedWalls
    {
        type            noSlip;
    }
    frontAndBack
    {
        type            empty;
    }
    procBoundary0to1
    {
        type            processor;
        value           nonuniform List<vector> 6((0.00680328 0 0) (0.0206069 0 0) (0.0350059 0 0) (0.0504106 0 0) (0.0672506 0 0) (0.0859837 0 0));
    }
    procBoundary0to3
    {
        type            processor;
        value           nonuniform List<vector> 8((0.00930083 0 0) (0.0276371 0 0) (0.0451928 0 0) (0.0614953 0 0) (0.0761347 0 0) (0.0761347 0 0) (0.108943 0 0) (0.121552 0 0));
    }
    procBoundary0to4
    {
        type            processor;
        value           uniform (0.10711 0 0);
    }
}


// ************************************************************************* //
