/*--------------------------------*- C++ -*----------------------------------*\
  =========                 |
  \\      /  F ield         | OpenFOAM: The Open Source CFD Toolbox
   \\    /   O peration     | Website:  https://openfoam.org
    \\  /    A nd           | Version:  9
     \\/     M anipulation  |
\*---------------------------------------------------------------------------*/
FoamFile
{
    format      ascii;
    class       surfaceScalarField;
    location    "0.095";
    object      phi;
}
// * * * * * * * * * * * * * * * * * * * * * * * * * * * * * * * * * * * * * //

dimensions      [0 3 -1 0 0 0 0];

internalField   nonuniform List<scalar> 
67
(
6.00291e-08
-6.15992e-08
-3.18401e-07
3.7843e-07
-8.4761e-07
5.29207e-07
-1.51117e-06
6.63556e-07
7.09357e-07
-8.87413e-08
2.71413e-08
-8.98462e-07
1.18815e-06
-2.25838e-06
1.88912e-06
-3.89073e-06
2.29591e-06
2.46009e-06
-5.34044e-07
5.61184e-07
-1.86451e-06
2.51862e-06
-3.85428e-06
3.87889e-06
-6.22941e-06
4.67105e-06
4.99045e-06
-8.57844e-07
1.41903e-06
-2.78901e-06
4.44978e-06
-5.42868e-06
6.51857e-06
-8.48944e-06
7.7318e-06
8.20355e-06
-1.1462e-06
2.56523e-06
-3.62062e-06
6.92421e-06
-6.88088e-06
9.77882e-06
-1.05846e-05
1.14356e-05
1.2044e-05
-1.3907e-06
3.95592e-06
-4.35462e-06
9.88813e-06
-8.18888e-06
1.36131e-05
-1.24868e-05
1.57334e-05
1.64637e-05
-1.6057e-06
5.56162e-06
-5.00632e-06
1.32887e-05
-9.3595e-06
1.79663e-05
-1.41943e-05
2.05683e-05
2.14031e-05
-1.80127e-06
-5.59483e-06
-1.04082e-05
-1.5709e-05
)
;

boundaryField
{
    movingWall
    {
        type            calculated;
        value           nonuniform List<scalar> 0();
    }
    fixedWalls
    {
        type            calculated;
        value           uniform 0;
    }
    frontAndBack
    {
        type            empty;
        value           nonuniform List<scalar> 0();
    }
    procBoundary0to1
    {
        type            processor;
        value           nonuniform List<scalar> 5(7.36288e-06 1.70823e-05 2.27797e-05 2.58691e-05 2.67903e-05);
    }
    procBoundary0to2
    {
        type            processor;
        value           nonuniform List<scalar> 8(-2.22052e-06 -5.64146e-06 -8.75977e-06 -1.17025e-05 -1.44251e-05 -1.69064e-05 -1.91338e-05 -2.10963e-05);
    }
}


// ************************************************************************* //
