/*--------------------------------*- C++ -*----------------------------------*\
  =========                 |
  \\      /  F ield         | OpenFOAM: The Open Source CFD Toolbox
   \\    /   O peration     | Website:  https://openfoam.org
    \\  /    A nd           | Version:  9
     \\/     M anipulation  |
\*---------------------------------------------------------------------------*/
FoamFile
{
    format      ascii;
    class       volVectorField;
    location    "0.095";
    object      U;
}
// * * * * * * * * * * * * * * * * * * * * * * * * * * * * * * * * * * * * * //

dimensions      [0 1 -1 0 0 0 0];

internalField   nonuniform List<vector> 
40
(
(0.00436778 0.00215572 0)
(-0.000857511 0.00605109 0)
(-0.00936394 0.00538847 0)
(-0.0237112 0.00566797 0)
(-0.0374921 0.00568377 0)
(0.00338637 -0.000957782 0)
(-0.00520678 0.0152697 0)
(-0.0292865 0.0217976 0)
(-0.0606823 0.0261204 0)
(-0.095306 0.0277904 0)
(-0.00255957 0.00603331 0)
(-0.0196875 0.0347792 0)
(-0.0541752 0.0548794 0)
(-0.0994275 0.0663856 0)
(-0.14971 0.0709909 0)
(-0.00628819 0.0180236 0)
(-0.0320058 0.0669714 0)
(-0.0788937 0.101088 0)
(-0.137641 0.121017 0)
(-0.201792 0.128928 0)
(-0.00917473 0.0384669 0)
(-0.0426861 0.111251 0)
(-0.101528 0.160211 0)
(-0.17316 0.188863 0)
(-0.250146 0.199747 0)
(-0.0114447 0.0641889 0)
(-0.0518274 0.16605 0)
(-0.121704 0.231542 0)
(-0.205332 0.269275 0)
(-0.294181 0.282706 0)
(-0.0133725 0.0943773 0)
(-0.0598528 0.230152 0)
(-0.139656 0.313894 0)
(-0.234206 0.361037 0)
(-0.333702 0.376789 0)
(-0.0151081 0.128494 0)
(-0.0671014 0.302201 0)
(-0.155851 0.40572 0)
(-0.259885 0.462702 0)
(-0.368662 0.480303 0)
)
;

boundaryField
{
    movingWall
    {
        type            fixedValue;
        value           nonuniform List<vector> 0();
    }
    fixedWalls
    {
        type            noSlip;
    }
    frontAndBack
    {
        type            empty;
    }
    procBoundary0to1
    {
        type            processor;
        value           nonuniform List<vector> 5((-0.0167595 0.166324 0) (-0.0740191 0.381676 0) (-0.170578 0.506202 0) (-0.282851 0.572896 0) (-0.398992 0.592124 0));
    }
    procBoundary0to2
    {
        type            processor;
        value           nonuniform List<vector> 8((-0.0518289 0.00552973 0) (-0.130839 0.0274556 0) (-0.200976 0.0699125 0) (-0.266505 0.126472 0) (-0.327058 0.194997 0) (-0.382315 0.274812 0) (-0.431937 0.364881 0) (-0.475516 0.464007 0));
    }
}


// ************************************************************************* //
