/*--------------------------------*- C++ -*----------------------------------*\
| =========                 |                                                 |
| \\      /  F ield         | OpenFOAM: The Open Source CFD Toolbox           |
|  \\    /   O peration     | Version:  2212                                  |
|   \\  /    A nd           | Website:  www.openfoam.com                      |
|    \\/     M anipulation  |                                                 |
\*---------------------------------------------------------------------------*/
FoamFile
{
    version     2.0;
    format      ascii;
    arch        "LSB;label=32;scalar=64";
    class       volVectorField;
    location    "0.5";
    object      U;
}
// * * * * * * * * * * * * * * * * * * * * * * * * * * * * * * * * * * * * * //

dimensions      [0 1 -1 0 0 0 0];

internalField   nonuniform List<vector> 
44
(
(0.113989 0 0)
(0.119714 0 0)
(0.122597 0 0)
(0.122595 0 0)
(0.138629 0 0)
(0.145497 0 0)
(0.148951 0 0)
(0.14895 0 0)
(0.145493 0 0)
(0.138624 0 0)
(0.1666 0 0)
(0.174702 0 0)
(0.178769 0 0)
(0.178769 0 0)
(0.1747 0 0)
(0.166597 0 0)
(0.198535 0 0)
(0.207949 0 0)
(0.212664 0 0)
(0.212663 0 0)
(0.207948 0 0)
(0.198534 0 0)
(0.235131 0 0)
(0.245903 0 0)
(0.251282 0 0)
(0.251282 0 0)
(0.245903 0 0)
(0.23513 0 0)
(0.277142 0 0)
(0.289261 0 0)
(0.295287 0 0)
(0.295287 0 0)
(0.289261 0 0)
(0.277142 0 0)
(0.325366 0 0)
(0.338719 0 0)
(0.345326 0 0)
(0.345326 0 0)
(0.338721 0 0)
(0.325368 0 0)
(0.401978 0 0)
(0.401979 0 0)
(0.394938 0 0)
(0.380612 0 0)
)
;

boundaryField
{
    movingWall
    {
        type            fixedValue;
        value           nonuniform List<vector> 0();
    }
    fixedWalls
    {
        type            noSlip;
    }
    frontAndBack
    {
        type            empty;
    }
    procBoundary4to0
    {
        type            processor;
        value           uniform (0.105515 0 0);
    }
    procBoundary4to1
    {
        type            processor;
        value           nonuniform List<vector> 7((0.0921099 0 0) (0.0967819 0 0) (0.0991377 0 0) (0.0991374 0 0) (0.11971 0 0) (0.11971 0 0) (0.113985 0 0));
    }
    procBoundary4to3
    {
        type            processor;
        value           nonuniform List<vector> 6((0.128439 0 0) (0.154545 0 0) (0.184472 0 0) (0.218953 0 0) (0.25882 0 0) (0.305005 0 0));
    }
    procBoundary4to5
    {
        type            processor;
        value           nonuniform List<vector> 6((0.128437 0 0) (0.154544 0 0) (0.184472 0 0) (0.218954 0 0) (0.258821 0 0) (0.305006 0 0));
    }
    procBoundary4to7
    {
        type            processor;
        value           nonuniform List<vector> 7((0.380613 0 0) (0.394937 0 0) (0.394937 0 0) (0.465685 0 0) (0.465684 0 0) (0.458451 0 0) (0.443622 0 0));
    }
    procBoundary4to8
    {
        type            processor;
        value           uniform (0.358535 0 0);
    }
}


// ************************************************************************* //
