/*--------------------------------*- C++ -*----------------------------------*\
  =========                 |
  \\      /  F ield         | OpenFOAM: The Open Source CFD Toolbox
   \\    /   O peration     | Website:  https://openfoam.org
    \\  /    A nd           | Version:  9
     \\/     M anipulation  |
\*---------------------------------------------------------------------------*/
FoamFile
{
    format      ascii;
    class       volScalarField;
    location    "0.07";
    object      p;
}
// * * * * * * * * * * * * * * * * * * * * * * * * * * * * * * * * * * * * * //

dimensions      [0 2 -2 0 0 0 0];

internalField   nonuniform List<scalar> 
40
(
-0.289103
-0.267581
-0.240325
-0.208387
-0.172275
-0.289116
-0.267242
-0.240351
-0.209117
-0.174101
-0.284971
-0.264058
-0.239119
-0.210692
-0.178676
-0.275711
-0.257932
-0.236845
-0.213099
-0.18549
-0.261695
-0.249889
-0.234817
-0.217226
-0.194664
-0.246014
-0.242849
-0.235588
-0.225106
-0.20777
-0.233729
-0.240456
-0.242057
-0.239198
-0.22715
-0.227767
-0.242523
-0.253597
-0.259756
-0.253908
)
;

boundaryField
{
    movingWall
    {
        type            zeroGradient;
    }
    fixedWalls
    {
        type            zeroGradient;
    }
    frontAndBack
    {
        type            empty;
    }
    procBoundary2to0
    {
        type            processor;
        value           nonuniform List<scalar> 8(-0.292071 -0.292246 -0.28921 -0.280859 -0.267562 -0.253032 -0.243523 -0.244368);
    }
    procBoundary2to3
    {
        type            processor;
        value           nonuniform List<scalar> 5(-0.260699 -0.27033 -0.281704 -0.292098 -0.292842);
    }
    procBoundary2to5
    {
        type            processor;
        value           nonuniform List<scalar> 8(-0.136688 -0.139026 -0.146275 -0.157243 -0.171635 -0.190134 -0.214672 -0.248118);
    }
}


// ************************************************************************* //
