/*--------------------------------*- C++ -*----------------------------------*\
  =========                 |
  \\      /  F ield         | OpenFOAM: The Open Source CFD Toolbox
   \\    /   O peration     | Website:  https://openfoam.org
    \\  /    A nd           | Version:  9
     \\/     M anipulation  |
\*---------------------------------------------------------------------------*/
FoamFile
{
    format      ascii;
    class       volVectorField;
    location    "0.09";
    object      U;
}
// * * * * * * * * * * * * * * * * * * * * * * * * * * * * * * * * * * * * * //

dimensions      [0 1 -1 0 0 0 0];

internalField   nonuniform List<vector> 
40
(
(-0.513675 0.574316 0)
(-0.621685 0.516837 0)
(-0.716331 0.428196 0)
(-0.794217 0.312051 0)
(-0.851823 0.172483 0)
(-0.544126 0.689275 0)
(-0.65489 0.620567 0)
(-0.752366 0.51695 0)
(-0.833857 0.382756 0)
(-0.896784 0.221931 0)
(-0.316864 0.822654 0)
(-0.444082 0.841918 0)
(-0.563691 0.805504 0)
(-0.671802 0.724699 0)
(-0.766527 0.606688 0)
(-0.846723 0.456199 0)
(-0.911226 0.276788 0)
(-0.334173 0.950218 0)
(-0.457399 0.963842 0)
(-0.568619 0.916467 0)
(-0.666085 0.822643 0)
(-0.750031 0.691099 0)
(-0.821541 0.526955 0)
(-0.88139 0.333101 0)
(-0.350127 1.07373 0)
(-0.461281 1.07565 0)
(-0.553977 1.01333 0)
(-0.629756 0.905109 0)
(-0.692017 0.761242 0)
(-0.744614 0.586847 0)
(-0.790798 0.384245 0)
(-0.364911 1.1855 0)
(-0.451735 1.1664 0)
(-0.511765 1.0839 0)
(-0.551412 0.959712 0)
(-0.578314 0.804975 0)
(-0.599206 0.625166 0)
(-0.620118 0.420774 0)
(-0.362062 0.628555 0)
(-0.34587 0.431151 0)
)
;

boundaryField
{
    movingWall
    {
        type            fixedValue;
        value           nonuniform List<vector> 0();
    }
    fixedWalls
    {
        type            noSlip;
    }
    frontAndBack
    {
        type            empty;
    }
    procBoundary3to1
    {
        type            processor;
        value           nonuniform List<vector> 8((-0.394389 0.591619 0) (-0.296055 0.69164 0) (-0.420983 0.712501 0) (-0.420983 0.712501 0) (-0.188241 0.724775 0) (-0.203781 0.846295 0) (-0.222609 0.971044 0) (-0.247808 1.09566 0));
    }
    procBoundary3to2
    {
        type            processor;
        value           nonuniform List<vector> 5((-0.472239 0.461234 0) (-0.572929 0.414903 0) (-0.660769 0.341838 0) (-0.731498 0.245262 0) (-0.781398 0.129096 0));
    }
    procBoundary3to4
    {
        type            processor;
        value           nonuniform List<vector> 8((-0.373319 1.26531 0) (-0.416795 1.21288 0) (-0.424398 1.10425 0) (-0.409955 0.963466 0) (-0.385104 0.80162 0) (-0.385104 0.80162 0) (0.00130147 0.578531 0) (0.0644683 0.399751 0));
    }
    procBoundary3to5
    {
        type            processor;
        value           nonuniform List<vector> 2((-0.879424 0.0138541 0) (-0.931782 0.0378746 0));
    }
    procBoundary3to6
    {
        type            processor;
        value           nonuniform List<vector> 5((-0.951811 0.0702955 0) (-0.923476 0.109336 0) (-0.827576 0.15067 0) (-0.642405 0.187023 0) (-0.343355 0.209079 0));
    }
}


// ************************************************************************* //
