/*--------------------------------*- C++ -*----------------------------------*\
  =========                 |
  \\      /  F ield         | OpenFOAM: The Open Source CFD Toolbox
   \\    /   O peration     | Website:  https://openfoam.org
    \\  /    A nd           | Version:  9
     \\/     M anipulation  |
\*---------------------------------------------------------------------------*/
FoamFile
{
    format      ascii;
    class       surfaceScalarField;
    location    "0.06";
    object      phi;
}
// * * * * * * * * * * * * * * * * * * * * * * * * * * * * * * * * * * * * * //

dimensions      [0 3 -1 0 0 0 0];

internalField   nonuniform List<scalar> 
67
(
-2.82228e-05
-7.13025e-05
-1.8525e-05
-7.62259e-05
-7.00945e-06
-6.53414e-05
-3.00145e-05
-2.89017e-05
-4.11382e-05
-3.00784e-05
-5.75943e-05
-2.78885e-05
-7.34925e-05
-2.06255e-05
-8.34889e-05
-8.94447e-06
-7.70225e-05
-3.8959e-05
-1.37121e-05
-3.53292e-05
-1.95533e-05
-5.17531e-05
-2.30227e-05
-7.00231e-05
-2.08126e-05
-8.5699e-05
-1.09774e-05
-8.68577e-05
-4.99364e-05
1.15885e-05
-2.65262e-05
6.08962e-07
-4.07736e-05
-1.02853e-05
-5.91288e-05
-1.6462e-05
-7.95223e-05
-1.21577e-05
-9.1162e-05
-6.20941e-05
4.98539e-05
-1.57555e-05
3.45503e-05
-2.54701e-05
1.56744e-05
-4.02529e-05
-2.36531e-06
-6.14826e-05
-9.82042e-06
-8.37069e-05
-7.19145e-05
0.000104522
-5.45473e-06
8.82916e-05
-9.23995e-06
6.4435e-05
-1.63963e-05
3.34094e-05
-3.0457e-05
4.27195e-06
-5.45695e-05
-6.76425e-05
0.000178305
0.000169065
0.000152669
0.000122212
6.76425e-05
)
;

boundaryField
{
    movingWall
    {
        type            calculated;
        value           uniform 0;
    }
    fixedWalls
    {
        type            calculated;
        value           uniform 0;
    }
    frontAndBack
    {
        type            empty;
        value           nonuniform List<scalar> 0();
    }
    procBoundary9to6
    {
        type            processor;
        value           nonuniform List<scalar> 6(2.626e-05 7.90316e-06 -2.03915e-05 -6.06246e-05 -0.000114822 -0.00018376);
    }
    procBoundary9to8
    {
        type            processor;
        value           nonuniform List<scalar> 7(6.54372e-05 6.65281e-05 5.38259e-05 2.30051e-05 4.37799e-05 3.40881e-05 5.8771e-05);
    }
}


// ************************************************************************* //
