/*--------------------------------*- C++ -*----------------------------------*\
  =========                 |
  \\      /  F ield         | OpenFOAM: The Open Source CFD Toolbox
   \\    /   O peration     | Website:  https://openfoam.org
    \\  /    A nd           | Version:  9
     \\/     M anipulation  |
\*---------------------------------------------------------------------------*/
FoamFile
{
    format      ascii;
    class       volVectorField;
    location    "0.005";
    object      U;
}
// * * * * * * * * * * * * * * * * * * * * * * * * * * * * * * * * * * * * * //

dimensions      [0 1 -1 0 0 0 0];

internalField   nonuniform List<vector> 
40
(
(-0.000664583 0.00635708 0)
(-0.00238635 0.0105754 0)
(-0.00448426 0.0104141 0)
(-0.00635882 0.00945737 0)
(-0.00801225 0.00828849 0)
(-0.000795693 0.0078277 0)
(-0.0028524 0.0128576 0)
(-0.00532941 0.0125793 0)
(-0.00751271 0.01136 0)
(-0.00934479 0.00982976 0)
(-0.000971993 0.00960352 0)
(-0.00346518 0.015587 0)
(-0.00640302 0.0151181 0)
(-0.00121289 0.0117904 0)
(-0.00428374 0.018887 0)
(-0.00778881 0.0180978 0)
(-0.00154705 0.0145416 0)
(-0.0053827 0.022897 0)
(-0.00955339 0.0215588 0)
(-0.00202025 0.0180807 0)
(-0.0068705 0.027785 0)
(-0.01173 0.0255363 0)
(-0.00269269 0.0227501 0)
(-0.00881539 0.0337291 0)
(-0.014279 0.0299141 0)
(-0.00359252 0.0290527 0)
(-0.0112405 0.0407229 0)
(-0.0167165 0.0342523 0)
(-0.00458789 0.0375492 0)
(-0.0136392 0.0480629 0)
(-0.0175033 0.0374599 0)
(-0.00452646 0.0497766 0)
(-0.0136084 0.0539418 0)
(-0.0122169 0.0371345 0)
(0.00333198 0.0593345 0)
(-0.000816237 0.0513453 0)
(0.0129762 0.0291085 0)
(0.0688782 0.0311091 0)
(0.0845511 0.0219807 0)
(0.109861 0.010568 0)
)
;

boundaryField
{
    movingWall
    {
        type            fixedValue;
        value           uniform (0.25 0 0);
    }
    fixedWalls
    {
        type            noSlip;
    }
    frontAndBack
    {
        type            empty;
    }
    procBoundary1to0
    {
        type            processor;
        value           nonuniform List<vector> 5((-0.00056256 0.005117 0) (-0.00202802 0.00865279 0) (-0.00380846 0.00856681 0) (-0.00547049 0.00781696 0) (-0.0068987 0.00688744 0));
    }
    procBoundary1to3
    {
        type            processor;
        value           nonuniform List<vector> 8((-0.0093578 0.00691422 0) (-0.00893513 0.013508 0) (-0.0108241 0.00818851 0) (-0.0109839 0.0115896 0) (-0.00893513 0.013508 0) (-0.0106807 0.0159332 0) (-0.0128006 0.0186373 0) (-0.0152148 0.0214845 0));
    }
    procBoundary1to4
    {
        type            processor;
        value           nonuniform List<vector> 6((-0.0176485 0.0242707 0) (-0.0192219 0.0265054 0) (-0.0176168 0.0271024 0) (-0.00741127 0.0245419 0) (0.025856 0.0169521 0) (0.126344 0.00555147 0));
    }
}


// ************************************************************************* //
