/*--------------------------------*- C++ -*----------------------------------*\
  =========                 |
  \\      /  F ield         | OpenFOAM: The Open Source CFD Toolbox
   \\    /   O peration     | Website:  https://openfoam.org
    \\  /    A nd           | Version:  8
     \\/     M anipulation  |
\*---------------------------------------------------------------------------*/
FoamFile
{
    version     2.0;
    format      ascii;
    class       volScalarField;
    location    "1";
    object      p;
}
// * * * * * * * * * * * * * * * * * * * * * * * * * * * * * * * * * * * * * //

dimensions      [0 2 -2 0 0 0 0];

internalField   nonuniform List<scalar> 
400
(
-0.0991797
-0.198167
-0.251314
-0.276692
-0.280325
-0.268109
-0.243167
-0.206087
-0.159514
-0.106439
-0.0490951
0.0103331
0.0690795
0.124001
0.172226
0.211704
0.241442
0.261427
0.272438
0.2761
-0.198555
-0.23903
-0.268558
-0.283708
-0.282692
-0.267836
-0.241493
-0.204354
-0.158605
-0.106605
-0.05017
0.00867585
0.0671521
0.121984
0.170104
0.209291
0.238476
0.257586
0.266984
0.266631
-0.250253
-0.268461
-0.280266
-0.284668
-0.277338
-0.259988
-0.233917
-0.198818
-0.156239
-0.107957
-0.0551218
0.000806929
0.0572439
0.110686
0.157585
0.195293
0.222629
0.239734
0.247174
0.245422
-0.27326
-0.280759
-0.280763
-0.276567
-0.263941
-0.244812
-0.220062
-0.188564
-0.151234
-0.109235
-0.0628054
-0.012464
0.0397007
0.0900519
0.13449
0.169804
0.19456
0.209025
0.214112
0.210858
-0.278086
-0.279118
-0.271669
-0.261076
-0.244115
-0.223565
-0.200478
-0.173156
-0.142032
-0.107948
-0.0703522
-0.0285888
0.0161732
0.0605505
0.100164
0.131415
0.152637
0.164009
0.166742
0.16227
-0.270399
-0.267693
-0.255783
-0.241101
-0.221162
-0.199784
-0.178683
-0.155793
-0.131041
-0.105473
-0.0783356
-0.0478533
-0.0137866
0.021426
0.0537026
0.0793508
0.0964278
0.104723
0.105692
0.100946
-0.255825
-0.251888
-0.238317
-0.222271
-0.201301
-0.180011
-0.161218
-0.142805
-0.123709
-0.105629
-0.0887525
-0.0708455
-0.0499929
-0.0268107
-0.00414644
0.0147749
0.0277391
0.0337307
0.0341468
0.030426
-0.239694
-0.236852
-0.224558
-0.210345
-0.191036
-0.171312
-0.155361
-0.141972
-0.127919
-0.115239
-0.106395
-0.100103
-0.0930865
-0.0833979
-0.0715442
-0.0594945
-0.0496352
-0.0443022
-0.0428374
-0.0445895
-0.224435
-0.224949
-0.216942
-0.208265
-0.194494
-0.179153
-0.167203
-0.160759
-0.152983
-0.14436
-0.140226
-0.14216
-0.146768
-0.149472
-0.147575
-0.140943
-0.131912
-0.124706
-0.120528
-0.120517
-0.208278
-0.213838
-0.2128
-0.213478
-0.210368
-0.204586
-0.198711
-0.202514
-0.205399
-0.202803
-0.201535
-0.207443
-0.219037
-0.230165
-0.23486
-0.230304
-0.218442
-0.20586
-0.197151
-0.196733
-0.185085
-0.196229
-0.20469
-0.218458
-0.231777
-0.244149
-0.248121
-0.265486
-0.285357
-0.295022
-0.298951
-0.306674
-0.320361
-0.334309
-0.340396
-0.333161
-0.313704
-0.291026
-0.274691
-0.274484
-0.145687
-0.162273
-0.184362
-0.216176
-0.250995
-0.293104
-0.314451
-0.347638
-0.388578
-0.417606
-0.432762
-0.444082
-0.457329
-0.469201
-0.471556
-0.457132
-0.425347
-0.386551
-0.356031
-0.352001
-0.0812511
-0.10429
-0.148072
-0.207365
-0.266881
-0.347399
-0.398212
-0.450656
-0.511901
-0.562578
-0.594024
-0.612631
-0.625193
-0.631686
-0.626759
-0.603127
-0.556699
-0.49561
-0.439022
-0.418645
0.0129969
-0.020929
-0.0965326
-0.197954
-0.286015
-0.398625
-0.487325
-0.567377
-0.649535
-0.721309
-0.771664
-0.799398
-0.80738
-0.801364
-0.784297
-0.751886
-0.693485
-0.607698
-0.510131
-0.452775
0.138451
0.0835981
-0.0259444
-0.174973
-0.303473
-0.425977
-0.541649
-0.658132
-0.774393
-0.877952
-0.957464
-0.999872
-0.983718
-0.941473
-0.896645
-0.852281
-0.788374
-0.68491
-0.539664
-0.425748
0.302282
0.209227
0.0779462
-0.0842715
-0.265905
-0.397399
-0.527686
-0.689885
-0.875401
-1.0522
-1.18714
-1.24036
-1.18296
-1.05172
-0.917945
-0.826445
-0.753732
-0.651919
-0.480413
-0.310049
0.525161
0.382683
0.23922
0.116679
-0.0926637
-0.292257
-0.515486
-0.782932
-1.07175
-1.3337
-1.5163
-1.577
-1.49663
-1.26395
-0.95492
-0.668963
-0.483262
-0.390229
-0.265389
-0.0888782
0.837354
0.690127
0.543492
0.36677
0.0752228
-0.269932
-0.665327
-1.06754
-1.41617
-1.67887
-1.84488
-1.90871
-1.85983
-1.66508
-1.27425
-0.695481
-0.132163
0.200098
0.24755
0.314947
1.45446
1.25542
0.951665
0.481951
-0.106513
-0.6455
-1.08643
-1.44587
-1.73081
-1.94197
-2.08117
-2.14826
-2.13376
-2.00939
-1.71995
-1.17931
-0.310894
0.604532
1.10267
1.19928
2.09982
1.62294
0.830211
-0.00151603
-0.58499
-1.00276
-1.34182
-1.62772
-1.8607
-2.03859
-2.16126
-2.22743
-2.22858
-2.14431
-1.94157
-1.57531
-0.944641
0.126362
1.46158
2.18939
)
;

boundaryField
{
    movingWall
    {
        type            zeroGradient;
    }
    fixedWalls
    {
        type            zeroGradient;
    }
    frontAndBack
    {
        type            empty;
    }
}


// ************************************************************************* //
