/*--------------------------------*- C++ -*----------------------------------*\
  =========                 |
  \\      /  F ield         | OpenFOAM: The Open Source CFD Toolbox
   \\    /   O peration     | Website:  https://openfoam.org
    \\  /    A nd           | Version:  8
     \\/     M anipulation  |
\*---------------------------------------------------------------------------*/
FoamFile
{
    version     2.0;
    format      ascii;
    class       volVectorField;
    location    "1";
    object      U;
}
// * * * * * * * * * * * * * * * * * * * * * * * * * * * * * * * * * * * * * //

dimensions      [0 1 -1 0 0 0 0];

internalField   nonuniform List<vector> 
400
(
(0.00120389 -0.00120792 0)
(0.000401516 0.000673006 0)
(-0.00645111 0.00286751 0)
(-0.0179683 0.00434062 0)
(-0.0321745 0.00506942 0)
(-0.0472972 0.00518564 0)
(-0.0618314 0.00480615 0)
(-0.074495 0.00400755 0)
(-0.0841743 0.00283753 0)
(-0.0899118 0.00134567 0)
(-0.0909651 -0.000383531 0)
(-0.0869286 -0.00220717 0)
(-0.0778851 -0.00391657 0)
(-0.0645409 -0.00525299 0)
(-0.0482891 -0.00594627 0)
(-0.0311497 -0.00577353 0)
(-0.0155468 -0.00462894 0)
(-0.00390947 -0.00259444 0)
(0.00189191 -8.66819e-05 0)
(0.0015772 0.00152446 0)
(-0.000623191 -0.000512263 0)
(-0.00896368 0.00883959 0)
(-0.0300561 0.0184031 0)
(-0.0603848 0.0249853 0)
(-0.0959803 0.0282388 0)
(-0.133169 0.0284694 0)
(-0.168537 0.0260738 0)
(-0.199033 0.0213982 0)
(-0.222005 0.0147508 0)
(-0.235255 0.00649949 0)
(-0.237195 -0.00281657 0)
(-0.227082 -0.0124095 0)
(-0.205298 -0.0212352 0)
(-0.173564 -0.0280772 0)
(-0.135014 -0.0317282 0)
(-0.0940189 -0.0312543 0)
(-0.0556692 -0.0263052 0)
(-0.0249206 -0.0174128 0)
(-0.00569998 -0.00641517 0)
(0.000312509 0.00208292 0)
(-0.00307542 0.0064973 0)
(-0.0201054 0.030331 0)
(-0.055578 0.0520752 0)
(-0.10299 0.0669011 0)
(-0.156657 0.0739955 0)
(-0.211697 0.0737868 0)
(-0.26348 0.067034 0)
(-0.307799 0.0545318 0)
(-0.340991 0.0371105 0)
(-0.360049 0.0158042 0)
(-0.362837 -0.00794523 0)
(-0.348386 -0.0321538 0)
(-0.317227 -0.054305 0)
(-0.271654 -0.0715508 0)
(-0.215826 -0.0811216 0)
(-0.155564 -0.0809199 0)
(-0.097708 -0.0702138 0)
(-0.0490445 -0.0502788 0)
(-0.0155793 -0.0250312 0)
(-0.00167172 -0.00260524 0)
(-0.00527197 0.0195499 0)
(-0.0305685 0.0642345 0)
(-0.0798757 0.101425 0)
(-0.143251 0.125951 0)
(-0.213209 0.137017 0)
(-0.283892 0.135371 0)
(-0.349838 0.122251 0)
(-0.406089 0.0990075 0)
(-0.448321 0.0671292 0)
(-0.472966 0.028492 0)
(-0.477429 -0.0143413 0)
(-0.460423 -0.0579256 0)
(-0.422346 -0.0979517 0)
(-0.365628 -0.129562 0)
(-0.294939 -0.148 0)
(-0.217091 -0.149582 0)
(-0.140414 -0.132844 0)
(-0.0736182 -0.0996023 0)
(-0.0253393 -0.0557543 0)
(-0.0034609 -0.0125726 0)
(-0.00717294 0.037968 0)
(-0.040021 0.109531 0)
(-0.102245 0.165035 0)
(-0.18048 0.2002 0)
(-0.265432 0.214969 0)
(-0.350393 0.210801 0)
(-0.429304 0.1896 0)
(-0.496726 0.153369 0)
(-0.54791 0.104305 0)
(-0.578849 0.0451583 0)
(-0.586477 -0.020352 0)
(-0.569002 -0.087251 0)
(-0.526339 -0.149292 0)
(-0.460601 -0.199332 0)
(-0.376506 -0.230189 0)
(-0.281541 -0.235994 0)
(-0.185509 -0.21389 0)
(-0.0994114 -0.165646 0)
(-0.0352321 -0.0987654 0)
(-0.00511001 -0.0275235 0)
(-0.00883605 0.0611583 0)
(-0.0484964 0.165317 0)
(-0.122544 0.241951 0)
(-0.214426 0.288669 0)
(-0.313151 0.306901 0)
(-0.411285 0.299285 0)
(-0.502365 0.268645 0)
(-0.580692 0.217726 0)
(-0.641269 0.14942 0)
(-0.679745 0.0672664 0)
(-0.69253 -0.0239731 0)
(-0.67711 -0.117881 0)
(-0.632541 -0.206248 0)
(-0.56011 -0.279414 0)
(-0.464064 -0.327234 0)
(-0.352178 -0.340811 0)
(-0.235676 -0.31485 0)
(-0.128275 -0.250115 0)
(-0.0462049 -0.155192 0)
(-0.00687302 -0.0476248 0)
(-0.0103015 0.0885972 0)
(-0.0560391 0.230587 0)
(-0.140687 0.330991 0)
(-0.244802 0.390144 0)
(-0.355868 0.411694 0)
(-0.46589 0.399966 0)
(-0.568213 0.358983 0)
(-0.657102 0.29232 0)
(-0.727512 0.203484 0)
(-0.774866 0.096614 0)
(-0.795047 -0.0227474 0)
(-0.784646 -0.146996 0)
(-0.741492 -0.2661 0)
(-0.66549 -0.367739 0)
(-0.559738 -0.438246 0)
(-0.43168 -0.464609 0)
(-0.293648 -0.437613 0)
(-0.162369 -0.355517 0)
(-0.0594119 -0.227124 0)
(-0.00904788 -0.0736641 0)
(-0.0115888 0.119789 0)
(-0.0626581 0.30425 0)
(-0.156537 0.430726 0)
(-0.271154 0.503041 0)
(-0.392659 0.527787 0)
(-0.512705 0.511519 0)
(-0.624699 0.459765 0)
(-0.723153 0.377005 0)
(-0.803242 0.267249 0)
(-0.86038 0.13495 0)
(-0.890038 -0.0139754 0)
(-0.887864 -0.171184 0)
(-0.850179 -0.32518 0)
(-0.774939 -0.461063 0)
(-0.663247 -0.56118 0)
(-0.521226 -0.607193 0)
(-0.361517 -0.583987 0)
(-0.203766 -0.485021 0)
(-0.0760813 -0.317688 0)
(-0.0119628 -0.107105 0)
(-0.0127184 0.154245 0)
(-0.0683812 0.385142 0)
(-0.169978 0.539472 0)
(-0.292943 0.625296 0)
(-0.422267 0.652939 0)
(-0.5495 0.631788 0)
(-0.668438 0.569219 0)
(-0.774202 0.470714 0)
(-0.862567 0.340649 0)
(-0.929298 0.183445 0)
(-0.969752 0.00486896 0)
(-0.978801 -0.186647 0)
(-0.951179 -0.378797 0)
(-0.882429 -0.554539 0)
(-0.770707 -0.692104 0)
(-0.619413 -0.7667 0)
(-0.439978 -0.754904 0)
(-0.254112 -0.642001 0)
(-0.0974735 -0.430953 0)
(-0.016 -0.150118 0)
(-0.0137581 0.191517 0)
(-0.0733989 0.472075 0)
(-0.181136 0.655254 0)
(-0.309807 0.754196 0)
(-0.443372 0.783912 0)
(-0.573593 0.757332 0)
(-0.69508 0.684094 0)
(-0.804033 0.570808 0)
(-0.897324 0.422095 0)
(-0.971591 0.241983 0)
(-1.02261 0.0354965 0)
(-1.04493 -0.18967 0)
(-1.03195 -0.421385 0)
(-0.976628 -0.641418 0)
(-0.873304 -0.824377 0)
(-0.720934 -0.938371 0)
(-0.527345 -0.949128 0)
(-0.314187 -0.829124 0)
(-0.124868 -0.571617 0)
(-0.0216471 -0.205621 0)
(-0.0149034 0.23135 0)
(-0.0783029 0.564028 0)
(-0.190733 0.775852 0)
(-0.321942 0.886228 0)
(-0.454958 0.916146 0)
(-0.582215 0.882975 0)
(-0.699703 0.7991 0)
(-0.805294 0.672427 0)
(-0.897564 0.507734 0)
(-0.974692 0.308345 0)
(-1.0336 0.0779496 0)
(-1.06933 -0.177408 0)
(-1.07461 -0.447056 0)
(-1.04017 -0.713129 0)
(-0.956061 -0.948039 0)
(-0.815074 -1.1132 0)
(-0.618223 -1.16148 0)
(-0.38322 -1.04686 0)
(-0.159515 -0.744414 0)
(-0.0295781 -0.277377 0)
(-0.0166136 0.274022 0)
(-0.084444 0.660518 0)
(-0.200541 0.898907 0)
(-0.330505 1.01692 0)
(-0.456626 1.04343 0)
(-0.572778 1.00138 0)
(-0.677139 0.906433 0)
(-0.76997 0.767948 0)
(-0.852228 0.590816 0)
(-0.924358 0.377424 0)
(-0.985301 0.129655 0)
(-1.0316 -0.148958 0)
(-1.05656 -0.450632 0)
(-1.04966 -0.759963 0)
(-0.997072 -1.04973 0)
(-0.884241 -1.27678 0)
(-0.701824 -1.38069 0)
(-0.457744 -1.29125 0)
(-0.202457 -0.953034 0)
(-0.0407644 -0.370142 0)
(-0.019852 0.320985 0)
(-0.0944495 0.762169 0)
(-0.213828 1.02199 0)
(-0.33776 1.14052 0)
(-0.448446 1.15744 0)
(-0.542594 1.10263 0)
(-0.621741 0.995417 0)
(-0.689391 0.846686 0)
(-0.749547 0.661351 0)
(-0.805554 0.440728 0)
(-0.859164 0.184635 0)
(-0.909554 -0.106509 0)
(-0.952081 -0.429085 0)
(-0.976845 -0.772503 0)
(-0.967682 -1.11354 0)
(-0.902921 -1.40877 0)
(-0.760012 -1.58722 0)
(-0.529827 -1.55078 0)
(-0.254014 -1.19817 0)
(-0.0565952 -0.489856 0)
(-0.0265045 0.376013 0)
(-0.112905 0.871359 0)
(-0.235478 1.14225 0)
(-0.346296 1.24919 0)
(-0.429459 1.24697 0)
(-0.48703 1.17366 0)
(-0.525583 1.0523 0)
(-0.552805 0.894956 0)
(-0.576239 0.7063 0)
(-0.602463 0.486487 0)
(-0.636478 0.233274 0)
(-0.680918 -0.0561682 0)
(-0.734695 -0.38311 0)
(-0.790862 -0.743782 0)
(-0.833903 -1.12308 0)
(-0.837485 -1.48384 0)
(-0.765332 -1.75173 0)
(-0.584383 -1.80249 0)
(-0.312446 -1.47401 0)
(-0.0788541 -0.643572 0)
(-0.0400055 0.447077 0)
(-0.146908 0.99246 0)
(-0.27065 1.25495 0)
(-0.355538 1.33114 0)
(-0.392806 1.29647 0)
(-0.394158 1.19763 0)
(-0.373311 1.06034 0)
(-0.342887 0.896759 0)
(-0.314013 0.710655 0)
(-0.296223 0.500833 0)
(-0.297507 0.263223 0)
(-0.324042 -0.00779559 0)
(-0.379169 -0.318147 0)
(-0.461113 -0.671737 0)
(-0.558995 -1.06502 0)
(-0.647046 -1.47482 0)
(-0.679094 -1.83564 0)
(-0.595052 -2.00826 0)
(-0.370537 -1.7626 0)
(-0.108916 -0.838487 0)
(-0.0657142 0.54948 0)
(-0.204746 1.13014 0)
(-0.318354 1.34903 0)
(-0.351051 1.36662 0)
(-0.313274 1.28371 0)
(-0.232432 1.15327 0)
(-0.130998 1.00059 0)
(-0.0262651 0.835633 0)
(0.0680896 0.659953 0)
(0.140868 0.470627 0)
(0.182382 0.262131 0)
(0.183937 0.0270596 0)
(0.138137 -0.243755 0)
(0.040494 -0.560802 0)
(-0.106548 -0.933123 0)
(-0.285251 -1.3581 0)
(-0.449436 -1.79477 0)
(-0.517765 -2.11276 0)
(-0.407775 -2.02685 0)
(-0.14422 -1.08077 0)
(-0.108541 0.712127 0)
(-0.286064 1.28074 0)
(-0.348949 1.39356 0)
(-0.276099 1.31802 0)
(-0.119743 1.17511 0)
(0.0729676 1.01428 0)
(0.272901 0.85394 0)
(0.461263 0.698151 0)
(0.624938 0.544561 0)
(0.753837 0.38811 0)
(0.839006 0.222356 0)
(0.871417 0.0395055 0)
(0.841485 -0.170452 0)
(0.739376 -0.421206 0)
(0.55738 -0.731269 0)
(0.297837 -1.11998 0)
(-0.00898883 -1.58557 0)
(-0.281509 -2.04311 0)
(-0.37604 -2.20049 0)
(-0.16778 -1.37371 0)
(-0.155421 0.978426 0)
(-0.340076 1.40041 0)
(-0.237093 1.3064 0)
(0.0334813 1.11473 0)
(0.355062 0.923743 0)
(0.674838 0.7543 0)
(0.969829 0.608651 0)
(1.22814 0.481893 0)
(1.44296 0.3671 0)
(1.60936 0.257498 0)
(1.7222 0.146732 0)
(1.77484 0.0282409 0)
(1.75835 -0.106057 0)
(1.66051 -0.268164 0)
(1.46545 -0.478178 0)
(1.15692 -0.768851 0)
(0.731252 -1.18063 0)
(0.228206 -1.71331 0)
(-0.173244 -2.15942 0)
(-0.118901 -1.67495 0)
(-0.0475366 1.26946 0)
(-0.0720156 1.31684 0)
(0.411491 0.96895 0)
(0.958265 0.709546 0)
(1.42959 0.529346 0)
(1.82323 0.398426 0)
(2.14934 0.301145 0)
(2.41426 0.226139 0)
(2.62277 0.164589 0)
(2.7779 0.110114 0)
(2.88013 0.0580058 0)
(2.92699 0.00428336 0)
(2.91278 -0.055293 0)
(2.82702 -0.127353 0)
(2.65186 -0.224381 0)
(2.35843 -0.373278 0)
(1.90183 -0.630372 0)
(1.22456 -1.07919 0)
(0.452843 -1.68851 0)
(0.217504 -1.70177 0)
(1.43828 0.707206 0)
(1.83572 0.626583 0)
(2.56337 0.398282 0)
(3.13747 0.251669 0)
(3.51187 0.164258 0)
(3.76907 0.109431 0)
(3.95664 0.0740034 0)
(4.09501 0.0502388 0)
(4.19516 0.0331222 0)
(4.26353 0.0195233 0)
(4.3032 0.00749302 0)
(4.31468 -0.00430676 0)
(4.29612 -0.0169546 0)
(4.24275 -0.0321733 0)
(4.14476 -0.0531792 0)
(3.98102 -0.0879818 0)
(3.7023 -0.158355 0)
(3.17423 -0.316154 0)
(2.29944 -0.622741 0)
(1.66821 -0.779847 0)
)
;

boundaryField
{
    movingWall
    {
        type            fixedValue;
        value           uniform (5.07394 0 0);
    }
    fixedWalls
    {
        type            noSlip;
    }
    frontAndBack
    {
        type            empty;
    }
}


// ************************************************************************* //
