/*--------------------------------*- C++ -*----------------------------------*\
| =========                 |                                                 |
| \\      /  F ield         | OpenFOAM: The Open Source CFD Toolbox           |
|  \\    /   O peration     | Version:  2212                                  |
|   \\  /    A nd           | Website:  www.openfoam.com                      |
|    \\/     M anipulation  |                                                 |
\*---------------------------------------------------------------------------*/
FoamFile
{
    version     2.0;
    format      ascii;
    arch        "LSB;label=32;scalar=64";
    class       volVectorField;
    location    "0.2";
    object      U;
}
// * * * * * * * * * * * * * * * * * * * * * * * * * * * * * * * * * * * * * //

dimensions      [0 1 -1 0 0 0 0];

internalField   nonuniform List<vector> 
44
(
(0.121543 0 0)
(0.108936 0 0)
(0.0935359 0 0)
(0.0756386 0 0)
(0.0556437 0 0)
(0.034054 0 0)
(0.147282 0 0)
(0.132204 0 0)
(0.113701 0 0)
(0.0920948 0 0)
(0.0678471 0 0)
(0.0415675 0 0)
(0.0140024 0 0)
(0.177018 0 0)
(0.15922 0 0)
(0.137243 0 0)
(0.111414 0 0)
(0.0822445 0 0)
(0.0504649 0 0)
(0.0170138 0 0)
(0.211489 0 0)
(0.190747 0 0)
(0.164922 0 0)
(0.1343 0 0)
(0.0994188 0 0)
(0.0611354 0 0)
(0.0206357 0 0)
(0.251527 0 0)
(0.227689 0 0)
(0.197683 0 0)
(0.161673 0 0)
(0.120163 0 0)
(0.074124 0 0)
(0.0250639 0 0)
(0.298062 0 0)
(0.271125 0 0)
(0.236727 0 0)
(0.194772 0 0)
(0.145598 0 0)
(0.0902343 0 0)
(0.0305933 0 0)
(0.177379 0 0)
(0.110718 0 0)
(0.0377006 0 0)
)
;

boundaryField
{
    movingWall
    {
        type            fixedValue;
        value           nonuniform List<vector> 0();
    }
    fixedWalls
    {
        type            noSlip;
    }
    frontAndBack
    {
        type            empty;
    }
    procBoundary5to2
    {
        type            processor;
        value           nonuniform List<vector> 8((0.0991561 0 0) (0.0887733 0 0) (0.0761318 0 0) (0.0614922 0 0) (0.0451902 0 0) (0.0276353 0 0) (0.0114647 0 0) (0.0114647 0 0));
    }
    procBoundary5to4
    {
        type            processor;
        value           nonuniform List<vector> 6((0.131156 0 0) (0.15873 0 0) (0.190458 0 0) (0.227042 0 0) (0.269239 0 0) (0.317844 0 0));
    }
    procBoundary5to8
    {
        type            processor;
        value           nonuniform List<vector> 8((0.352116 0 0) (0.32234 0 0) (0.283598 0 0) (0.235306 0 0) (0.235306 0 0) (0.218045 0 0) (0.137646 0 0) (0.0472221 0 0));
    }
}


// ************************************************************************* //
