/*--------------------------------*- C++ -*----------------------------------*\
  =========                 |
  \\      /  F ield         | OpenFOAM: The Open Source CFD Toolbox
   \\    /   O peration     | Website:  https://openfoam.org
    \\  /    A nd           | Version:  9
     \\/     M anipulation  |
\*---------------------------------------------------------------------------*/
FoamFile
{
    format      ascii;
    class       volVectorField;
    location    "0.045";
    object      U;
}
// * * * * * * * * * * * * * * * * * * * * * * * * * * * * * * * * * * * * * //

dimensions      [0 1 -1 0 0 0 0];

internalField   nonuniform List<vector> 
40
(
(-0.389457 -0.274638 0)
(-0.310697 -0.30965 0)
(-0.458744 -0.350746 0)
(-0.372011 -0.401269 0)
(-0.269074 -0.411318 0)
(-0.162614 -0.373966 0)
(-0.0689453 -0.285525 0)
(-0.0147917 -0.12255 0)
(-0.531774 -0.430436 0)
(-0.440751 -0.501858 0)
(-0.326186 -0.524021 0)
(-0.20183 -0.484272 0)
(-0.0876957 -0.374667 0)
(-0.0192881 -0.162998 0)
(-0.605627 -0.510554 0)
(-0.512802 -0.608851 0)
(-0.389591 -0.650255 0)
(-0.248306 -0.614323 0)
(-0.111657 -0.484949 0)
(-0.0255111 -0.215136 0)
(-0.675079 -0.589482 0)
(-0.584918 -0.720943 0)
(-0.456599 -0.788724 0)
(-0.300219 -0.764546 0)
(-0.140062 -0.619125 0)
(-0.0332779 -0.282285 0)
(-0.727461 -0.663799 0)
(-0.645609 -0.828662 0)
(-0.520485 -0.934333 0)
(-0.354396 -0.932665 0)
(-0.172078 -0.778055 0)
(-0.042106 -0.365378 0)
(-0.740204 -0.719872 0)
(-0.680285 -0.92823 0)
(-0.569477 -1.07353 0)
(-0.406303 -1.11034 0)
(-0.207879 -0.959487 0)
(-0.0530643 -0.467516 0)
(-0.687698 -0.75417 0)
(-0.659282 -0.995921 0)
)
;

boundaryField
{
    movingWall
    {
        type            fixedValue;
        value           nonuniform List<vector> 0();
    }
    fixedWalls
    {
        type            noSlip;
    }
    frontAndBack
    {
        type            empty;
    }
    procBoundary8to5
    {
        type            processor;
        value           nonuniform List<vector> 4((-0.453057 -0.218718 0) (-0.525124 -0.274444 0) (-0.598607 -0.329619 0) (-0.669062 -0.38075 0));
    }
    procBoundary8to6
    {
        type            processor;
        value           nonuniform List<vector> 4((-0.733744 -0.429487 0) (-0.775763 -0.472875 0) (-0.770668 -0.502004 0) (-0.688999 -0.510444 0));
    }
    procBoundary8to7
    {
        type            processor;
        value           nonuniform List<vector> 7((-0.328564 -0.205843 0) (-0.259232 -0.230778 0) (-0.220955 -0.31395 0) (-0.220955 -0.31395 0) (-0.131977 -0.283279 0) (-0.0549013 -0.214273 0) (-0.0117086 -0.0910473 0));
    }
    procBoundary8to9
    {
        type            processor;
        value           nonuniform List<vector> 7((-0.585751 -1.20097 0) (-0.448335 -1.29298 0) (-0.249016 -1.16661 0) (-0.0681969 -0.595383 0) (-0.52947 -0.748914 0) (-0.585751 -1.20097 0) (-0.554696 -1.02597 0));
    }
}


// ************************************************************************* //
