/*--------------------------------*- C++ -*----------------------------------*\
  =========                 |
  \\      /  F ield         | OpenFOAM: The Open Source CFD Toolbox
   \\    /   O peration     | Website:  https://openfoam.org
    \\  /    A nd           | Version:  8
     \\/     M anipulation  |
\*---------------------------------------------------------------------------*/
FoamFile
{
    version     2.0;
    format      ascii;
    class       volScalarField;
    location    "1";
    object      p;
}
// * * * * * * * * * * * * * * * * * * * * * * * * * * * * * * * * * * * * * //

dimensions      [0 2 -2 0 0 0 0];

internalField   nonuniform List<scalar> 
400
(
-0.099145
-0.198098
-0.251225
-0.276592
-0.280219
-0.268001
-0.24306
-0.205983
-0.159415
-0.106345
-0.0490081
0.0104136
0.0691536
0.12407
0.172289
0.211764
0.241499
0.261482
0.272492
0.276153
-0.198485
-0.238946
-0.268463
-0.283604
-0.282585
-0.267728
-0.241386
-0.20425
-0.158506
-0.106511
-0.050083
0.00875643
0.0672264
0.122053
0.170167
0.209351
0.238533
0.257641
0.267039
0.266687
-0.250162
-0.268365
-0.280164
-0.284561
-0.277229
-0.259879
-0.23381
-0.198715
-0.15614
-0.107864
-0.0550343
0.000888224
0.0573191
0.110755
0.15765
0.195355
0.222688
0.239792
0.247232
0.24548
-0.273157
-0.280653
-0.280655
-0.276458
-0.263831
-0.244703
-0.219956
-0.188461
-0.151135
-0.109142
-0.0627169
-0.0123811
0.039778
0.0901241
0.134558
0.169869
0.194623
0.209088
0.214175
0.210922
-0.277976
-0.279006
-0.271557
-0.260964
-0.244005
-0.223457
-0.200373
-0.173054
-0.141934
-0.107854
-0.0702623
-0.0285035
0.0162539
0.060627
0.100237
0.131486
0.152708
0.16408
0.166814
0.162343
-0.270284
-0.267577
-0.255669
-0.240988
-0.221052
-0.199677
-0.178579
-0.155692
-0.130943
-0.105378
-0.0782435
-0.0477642
-0.0137006
0.0215091
0.0537834
0.0794306
0.0965077
0.104804
0.105775
0.10103
-0.255707
-0.25177
-0.238202
-0.222158
-0.201191
-0.179904
-0.161114
-0.142704
-0.12361
-0.105532
-0.0886568
-0.070751
-0.0498997
-0.0267186
-0.00405511
0.0148663
0.0278314
0.0338246
0.0342423
0.0305228
-0.239575
-0.236733
-0.224442
-0.210231
-0.190926
-0.171204
-0.155256
-0.141869
-0.127817
-0.115138
-0.106294
-0.100001
-0.0929837
-0.0832943
-0.0714398
-0.0593891
-0.0495285
-0.044194
-0.0427278
-0.044479
-0.224317
-0.22483
-0.216825
-0.20815
-0.194381
-0.179042
-0.167094
-0.160651
-0.152875
-0.144252
-0.140116
-0.142047
-0.146653
-0.149354
-0.147455
-0.140821
-0.13179
-0.124583
-0.120404
-0.120392
-0.208161
-0.21372
-0.212683
-0.213361
-0.210252
-0.204471
-0.198596
-0.202397
-0.20528
-0.202682
-0.201411
-0.207316
-0.218905
-0.230029
-0.234721
-0.230164
-0.218303
-0.205722
-0.197013
-0.196594
-0.184971
-0.196114
-0.204574
-0.21834
-0.231658
-0.244028
-0.247998
-0.265358
-0.285224
-0.294883
-0.298808
-0.306526
-0.320207
-0.33415
-0.340235
-0.332999
-0.313545
-0.29087
-0.274536
-0.274329
-0.14558
-0.162164
-0.18425
-0.21606
-0.250873
-0.292976
-0.314317
-0.347496
-0.388427
-0.417446
-0.432594
-0.443906
-0.457146
-0.469013
-0.471366
-0.456943
-0.425164
-0.386375
-0.355859
-0.351829
-0.0811549
-0.104191
-0.147967
-0.207251
-0.266758
-0.347263
-0.398066
-0.4505
-0.511731
-0.562394
-0.593827
-0.612424
-0.624976
-0.631463
-0.626534
-0.602905
-0.556486
-0.495409
-0.438831
-0.418457
0.0130777
-0.0208435
-0.0964365
-0.197844
-0.285892
-0.398484
-0.487169
-0.567207
-0.649347
-0.721103
-0.77144
-0.799157
-0.807125
-0.801104
-0.784036
-0.751631
-0.693241
-0.60747
-0.509922
-0.452577
0.138512
0.083666
-0.0258618
-0.174869
-0.303351
-0.425836
-0.541489
-0.657953
-0.774194
-0.877731
-0.957219
-0.999597
-0.983425
-0.94118
-0.896357
-0.852
-0.788105
-0.684661
-0.539444
-0.425551
0.302316
0.209273
0.078009
-0.0841857
-0.265793
-0.397267
-0.527533
-0.689708
-0.875192
-1.05195
-1.18686
-1.24005
-1.18263
-1.05141
-0.917649
-0.826165
-0.753465
-0.651671
-0.480198
-0.309867
0.525158
0.382699
0.239255
0.116731
-0.0925804
-0.292143
-0.515338
-0.782742
-1.07151
-1.33341
-1.51596
-1.57663
-1.49626
-1.26361
-0.954621
-0.668711
-0.483041
-0.390024
-0.265206
-0.0887282
0.8373
0.690094
0.543482
0.366785
0.0752809
-0.269823
-0.665156
-1.0673
-1.41587
-1.67852
-1.84448
-1.90829
-1.8594
-1.66467
-1.2739
-0.695232
-0.132009
0.200198
0.247646
0.315033
1.45431
1.2553
0.951596
0.48195
-0.106429
-0.645335
-1.08619
-1.44557
-1.73046
-1.94157
-2.08074
-2.1478
-2.13329
-2.00893
-1.71953
-1.17898
-0.310713
0.60456
1.10262
1.19922
2.09958
1.62277
0.830157
-0.00145208
-0.584838
-1.00254
-1.34155
-1.62739
-1.86032
-2.03817
-2.16081
-2.22696
-2.2281
-2.14383
-1.94112
-1.57492
-0.944352
0.126474
1.46147
2.18916
)
;

boundaryField
{
    movingWall
    {
        type            zeroGradient;
    }
    fixedWalls
    {
        type            zeroGradient;
    }
    frontAndBack
    {
        type            empty;
    }
}


// ************************************************************************* //
