/*--------------------------------*- C++ -*----------------------------------*\
  =========                 |
  \\      /  F ield         | OpenFOAM: The Open Source CFD Toolbox
   \\    /   O peration     | Website:  https://openfoam.org
    \\  /    A nd           | Version:  8
     \\/     M anipulation  |
\*---------------------------------------------------------------------------*/
FoamFile
{
    version     2.0;
    format      ascii;
    class       surfaceScalarField;
    location    "1";
    object      phi;
}
// * * * * * * * * * * * * * * * * * * * * * * * * * * * * * * * * * * * * * //

dimensions      [0 3 -1 0 0 0 0];

internalField   nonuniform List<scalar> 
760
(
6.39611e-08
-6.41694e-08
-1.33872e-07
1.97834e-07
-6.01268e-07
4.674e-07
-1.24948e-06
6.48206e-07
-1.98574e-06
7.36264e-07
-2.72902e-06
7.43282e-07
-3.41043e-06
6.81411e-07
-3.97061e-06
5.60173e-07
-4.35787e-06
3.87264e-07
-4.52948e-06
1.71609e-07
-4.45622e-06
-7.32632e-08
-4.12938e-06
-3.26833e-07
-3.56812e-06
-5.61262e-07
-2.82459e-06
-7.43532e-07
-1.9842e-06
-8.40383e-07
-1.15866e-06
-8.2554e-07
-4.70522e-07
-6.88142e-07
-2.98375e-08
-4.40685e-07
1.0217e-07
-1.32006e-07
1.02172e-07
-1.96233e-07
1.32054e-07
-9.6589e-07
9.675e-07
-2.25617e-06
1.75769e-06
-3.90505e-06
2.29709e-06
-5.72653e-06
2.55774e-06
-7.54191e-06
2.55867e-06
-9.18976e-06
2.32926e-06
-1.0528e-05
1.89838e-06
-1.14353e-05
1.29464e-06
-1.1817e-05
5.53221e-07
-1.1614e-05
-2.76174e-07
-1.08169e-05
-1.12396e-06
-9.47753e-06
-1.90064e-06
-7.71701e-06
-2.50406e-06
-5.72312e-06
-2.83427e-06
-3.73353e-06
-2.81514e-06
-2.00216e-06
-2.41952e-06
-7.50012e-07
-1.69284e-06
-1.03256e-07
-7.78767e-07
-1.08138e-09
-5.06006e-07
6.38065e-07
-1.89186e-06
2.35335e-06
-3.96615e-06
3.83198e-06
-6.48854e-06
4.81947e-06
-9.2063e-06
5.2755e-06
-1.18773e-05
5.22972e-06
-1.42804e-05
4.73229e-06
-1.62191e-05
3.83715e-06
-1.7527e-05
2.60248e-06
-1.8075e-05
1.10127e-06
-1.77851e-05
-5.66082e-07
-1.66456e-05
-2.26346e-06
-1.47265e-05
-3.81972e-06
-1.21889e-05
-5.04171e-06
-9.28221e-06
-5.74095e-06
-6.32464e-06
-5.77271e-06
-3.66185e-06
-5.0823e-06
-1.60715e-06
-3.74753e-06
-3.71257e-07
-2.01466e-06
-3.72337e-07
-7.8922e-07
1.42729e-06
-2.76772e-06
4.33185e-06
-5.58607e-06
6.65033e-06
-8.91017e-06
8.14358e-06
-1.24247e-05
8.79007e-06
-1.584e-05
8.64499e-06
-1.88947e-05
7.78693e-06
-2.13573e-05
6.29984e-06
-2.30308e-05
4.27596e-06
-2.37607e-05
1.83112e-06
-2.34493e-05
-8.77452e-07
-2.20737e-05
-3.63906e-06
-1.97039e-05
-6.18958e-06
-1.65167e-05
-8.22889e-06
-1.2799e-05
-9.45863e-06
-8.93147e-06
-9.64023e-06
-5.34764e-06
-8.66614e-06
-2.46862e-06
-6.62654e-06
-6.26066e-07
-3.85722e-06
-9.98402e-07
-1.04153e-06
2.46882e-06
-3.56888e-06
6.8592e-06
-7.08116e-06
1.01626e-05
-1.11475e-05
1.22099e-05
-1.53925e-05
1.30351e-05
-1.9488e-05
1.27405e-05
-2.31453e-05
1.14443e-05
-2.61107e-05
9.26525e-06
-2.81654e-05
6.33063e-06
-2.91322e-05
2.7979e-06
-2.88889e-05
-1.12068e-06
-2.73879e-05
-5.14007e-06
-2.46789e-05
-8.8986e-06
-2.09317e-05
-1.1976e-05
-1.6451e-05
-1.39394e-05
-1.16712e-05
-1.44199e-05
-7.12281e-06
-1.32146e-05
-3.36181e-06
-1.03875e-05
-8.7685e-07
-6.34217e-06
-1.87525e-06
-1.26644e-06
3.73526e-06
-4.29309e-06
9.88585e-06
-8.44173e-06
1.43112e-05
-1.31898e-05
1.69579e-05
-1.81071e-05
1.79524e-05
-2.28354e-05
1.74687e-05
-2.70689e-05
1.56779e-05
-3.05415e-05
1.27378e-05
-3.30195e-05
8.80861e-06
-3.4304e-05
4.08249e-06
-3.4242e-05
-1.18269e-06
-3.2746e-05
-6.63608e-06
-2.98234e-05
-1.18212e-05
-2.56112e-05
-1.61883e-05
-2.04085e-05
-1.91421e-05
-1.46931e-05
-2.01353e-05
-9.10153e-06
-1.88062e-05
-4.35743e-06
-1.51316e-05
-1.15152e-06
-9.54808e-06
-3.02677e-06
-1.46627e-06
5.20154e-06
-4.93961e-06
1.33592e-05
-9.65865e-06
1.90303e-05
-1.50175e-05
2.23168e-05
-2.05394e-05
2.34743e-05
-2.58451e-05
2.27744e-05
-3.06231e-05
2.04559e-05
-3.46051e-05
1.67198e-05
-3.75509e-05
1.17544e-05
-3.92428e-05
5.77442e-06
-3.94923e-05
-9.3322e-07
-3.81588e-05
-7.96956e-06
-3.51843e-05
-1.47957e-05
-3.06418e-05
-2.07308e-05
-2.47923e-05
-2.49915e-05
-1.81333e-05
-2.67943e-05
-1.14073e-05
-2.55321e-05
-5.53911e-06
-2.09998e-05
-1.48241e-06
-1.36048e-05
-4.50919e-06
-1.64168e-06
6.84323e-06
-5.50548e-06
1.7223e-05
-1.07174e-05
2.42422e-05
-1.65966e-05
2.8196e-05
-2.26287e-05
2.95064e-05
-2.84259e-05
2.85717e-05
-3.3684e-05
2.5714e-05
-3.81466e-05
2.11824e-05
-4.15787e-05
1.51865e-05
-4.37526e-05
7.94826e-06
-4.44459e-05
-2.39949e-07
-4.34569e-05
-8.95854e-06
-4.0641e-05
-1.76116e-05
-3.59717e-05
-2.54001e-05
-2.96258e-05
-3.13374e-05
-2.20749e-05
-3.43452e-05
-1.41461e-05
-3.34609e-05
-6.99042e-06
-2.81556e-05
-1.90355e-06
-1.86917e-05
-6.41273e-06
-1.79347e-06
8.6367e-06
-5.98866e-06
2.14182e-05
-1.1602e-05
2.98555e-05
-1.78822e-05
3.44762e-05
-2.42881e-05
3.59123e-05
-3.04376e-05
3.47211e-05
-3.60511e-05
3.13275e-05
-4.09025e-05
2.60338e-05
-4.47809e-05
1.90649e-05
-4.74646e-05
1.0632e-05
-4.87094e-05
1.00491e-06
-4.82551e-05
-9.41286e-06
-4.58569e-05
-2.00099e-05
-4.13535e-05
-2.99034e-05
-3.47777e-05
-3.79131e-05
-2.65022e-05
-4.26207e-05
-1.73792e-05
-4.25839e-05
-8.78568e-06
-3.67491e-05
-2.45054e-06
-2.50268e-05
-8.86327e-06
-1.9269e-06
1.05636e-05
-6.3975e-06
2.58888e-05
-1.2307e-05
3.57651e-05
-1.88328e-05
4.1002e-05
-2.54178e-05
4.24973e-05
-3.17044e-05
4.10076e-05
-3.74601e-05
3.70832e-05
-4.25132e-05
3.1087e-05
-4.67023e-05
2.32539e-05
-4.98381e-05
1.37678e-05
-5.16797e-05
2.84649e-06
-5.19259e-05
-9.16668e-06
-5.02343e-05
-2.17015e-05
-4.62829e-05
-3.38548e-05
-3.98958e-05
-4.43003e-05
-3.12426e-05
-5.12739e-05
-2.10879e-05
-5.27386e-05
-1.09796e-05
-4.68574e-05
-3.16208e-06
-3.28443e-05
-1.20253e-05
-2.05896e-06
1.26226e-05
-6.76586e-06
3.05957e-05
-1.28567e-05
4.18559e-05
-1.94285e-05
4.75738e-05
-2.59234e-05
4.89923e-05
-3.20343e-05
4.71185e-05
-3.76044e-05
4.26533e-05
-4.25465e-05
3.6029e-05
-4.67801e-05
2.74876e-05
-5.0184e-05
1.71717e-05
-5.25581e-05
5.22063e-06
-5.35982e-05
-8.12663e-06
-5.28905e-05
-2.24092e-05
-4.99501e-05
-3.67952e-05
-4.43373e-05
-4.99131e-05
-3.58954e-05
-5.97159e-05
-2.51231e-05
-6.35109e-05
-1.35897e-05
-5.83909e-05
-4.08205e-06
-4.23519e-05
-1.61074e-05
-2.22996e-06
1.48525e-05
-7.17411e-06
3.55398e-05
-1.33262e-05
4.8008e-05
-1.96887e-05
5.39363e-05
-2.57304e-05
5.5034e-05
-3.12333e-05
5.26214e-05
-3.61544e-05
4.75744e-05
-4.05254e-05
4.04001e-05
-4.43821e-05
3.13443e-05
-4.77103e-05
2.04999e-05
-5.0399e-05
7.90934e-06
-5.21964e-05
-6.32918e-06
-5.2674e-05
-2.19316e-05
-5.12202e-05
-3.8249e-05
-4.71131e-05
-5.40202e-05
-3.9752e-05
-6.70769e-05
-2.91343e-05
-7.41287e-05
-1.65646e-05
-7.09606e-05
-5.26143e-06
-5.3655e-05
-2.13688e-05
-2.52217e-06
1.73747e-05
-7.77474e-06
4.07924e-05
-1.38572e-05
5.40905e-05
-1.96725e-05
5.97516e-05
-2.47731e-05
6.01346e-05
-2.90927e-05
5.6941e-05
-3.27518e-05
5.12335e-05
-3.5939e-05
4.35873e-05
-3.88383e-05
3.42435e-05
-4.15782e-05
2.32398e-05
-4.41842e-05
1.05153e-05
-4.65227e-05
-3.99064e-06
-4.82341e-05
-2.02201e-05
-4.86667e-05
-3.78165e-05
-4.68642e-05
-5.58226e-05
-4.17191e-05
-7.2222e-05
-3.24734e-05
-8.33744e-05
-1.97262e-05
-8.37078e-05
-6.75662e-06
-6.66246e-05
-2.81255e-05
-3.08978e-06
2.04645e-05
-8.81479e-06
4.65174e-05
-1.46409e-05
5.99166e-05
-1.94201e-05
6.45308e-05
-2.29103e-05
6.36248e-05
-2.52974e-05
5.9328e-05
-2.6929e-05
5.28651e-05
-2.81861e-05
4.48443e-05
-2.94214e-05
3.54789e-05
-3.09251e-05
2.47435e-05
-3.28903e-05
1.24805e-05
-3.53591e-05
-1.52176e-06
-3.81367e-05
-1.74426e-05
-4.06648e-05
-3.52883e-05
-4.18932e-05
-5.45943e-05
-4.02624e-05
-7.38528e-05
-3.4075e-05
-8.95618e-05
-2.26661e-05
-9.51167e-05
-8.61191e-06
-8.06788e-05
-3.67374e-05
-4.19993e-06
2.46644e-05
-1.06202e-05
5.29377e-05
-1.57943e-05
6.50907e-05
-1.87419e-05
6.74785e-05
-1.96695e-05
6.45524e-05
-1.91633e-05
5.88218e-05
-1.78676e-05
5.15695e-05
-1.63755e-05
4.33522e-05
-1.52025e-05
3.43058e-05
-1.47865e-05
2.43275e-05
-1.54837e-05
1.31776e-05
-1.75354e-05
5.29956e-07
-2.0987e-05
-1.3991e-05
-2.5529e-05
-3.07463e-05
-3.02507e-05
-4.98726e-05
-3.3378e-05
-7.07255e-05
-3.22979e-05
-9.0642e-05
-2.45499e-05
-0.000102865
-1.07853e-05
-9.44434e-05
-4.75226e-05
-6.24597e-06
3.09104e-05
-1.34037e-05
6.00954e-05
-1.6922e-05
6.8609e-05
-1.66358e-05
6.71922e-05
-1.3626e-05
6.15426e-05
-9.05049e-06
5.42462e-05
-3.88359e-06
4.64026e-05
1.10134e-06
3.83673e-05
5.28491e-06
3.01223e-05
8.14537e-06
2.1467e-05
9.22215e-06
1.21009e-05
8.10958e-06
1.64253e-06
4.5061e-06
-1.03875e-05
-1.6472e-06
-2.4593e-05
-9.86102e-06
-4.16587e-05
-1.85909e-05
-6.19956e-05
-2.47073e-05
-8.45256e-05
-2.37452e-05
-0.000103827
-1.29114e-05
-0.000105277
-6.04341e-05
-9.56005e-06
4.04704e-05
-1.64242e-05
6.69596e-05
-1.58189e-05
6.80037e-05
-9.88748e-06
6.12608e-05
-1.12482e-06
5.278e-05
8.70376e-06
4.44177e-05
1.84183e-05
3.6688e-05
2.72219e-05
2.95637e-05
3.45378e-05
2.28064e-05
3.98912e-05
1.61136e-05
4.28322e-05
9.15986e-06
4.28927e-05
1.58209e-06
3.95848e-05
-7.07959e-06
3.24643e-05
-1.74725e-05
2.13748e-05
-3.05693e-05
7.05047e-06
-4.76713e-05
-7.76949e-06
-6.97056e-05
-1.72111e-05
-9.43852e-05
-1.37606e-05
-0.000108728
-7.41947e-05
-1.34284e-05
5.38988e-05
-1.50778e-05
6.86089e-05
-5.09497e-06
5.80209e-05
9.81231e-06
4.63536e-05
2.58416e-05
3.67507e-05
4.1209e-05
2.90502e-05
5.50346e-05
2.28624e-05
6.68546e-05
1.77437e-05
7.63804e-05
1.32805e-05
8.3361e-05
9.13306e-06
8.75019e-05
5.01893e-06
8.84113e-05
6.72784e-07
8.55636e-05
-4.23195e-06
7.8253e-05
-1.01619e-05
6.5651e-05
-1.79673e-05
4.71779e-05
-2.91981e-05
2.37878e-05
-4.63155e-05
7.0893e-07
-7.13064e-05
-1.02164e-05
-9.78022e-05
-8.44111e-05
-9.40679e-06
6.33056e-05
8.82342e-06
5.03787e-05
3.51803e-05
3.16639e-05
6.00331e-05
2.15008e-05
8.14781e-05
1.53057e-05
9.94447e-05
1.10837e-05
0.000114191
8.11561e-06
0.000126002
5.93299e-06
0.000135082
4.20114e-06
0.000141514
2.70068e-06
0.000145249
1.28428e-06
0.000146079
-1.57458e-07
0.000143614
-1.76682e-06
0.000137152
-3.70001e-06
0.000125522
-6.3375e-06
0.000106875
-1.05511e-05
7.90615e-05
-1.85021e-05
4.22834e-05
-3.45283e-05
6.89499e-06
-6.24138e-05
-7.75162e-05
6.33056e-05
0.000113684
0.000145348
0.000166849
0.000182155
0.000193238
0.000201354
0.000207287
0.000211488
0.000214189
0.000215473
0.000215316
0.000213549
0.000209849
0.000203511
0.00019296
0.000174458
0.00013993
7.75162e-05
)
;

boundaryField
{
    movingWall
    {
        type            calculated;
        value           uniform 0;
    }
    fixedWalls
    {
        type            calculated;
        value           uniform 0;
    }
    frontAndBack
    {
        type            empty;
        value           nonuniform List<scalar> 0();
    }
}


// ************************************************************************* //
