/*--------------------------------*- C++ -*----------------------------------*\
  =========                 |
  \\      /  F ield         | OpenFOAM: The Open Source CFD Toolbox
   \\    /   O peration     | Website:  https://openfoam.org
    \\  /    A nd           | Version:  8
     \\/     M anipulation  |
\*---------------------------------------------------------------------------*/
FoamFile
{
    version     2.0;
    format      ascii;
    class       volVectorField;
    location    "1";
    object      U;
}
// * * * * * * * * * * * * * * * * * * * * * * * * * * * * * * * * * * * * * //

dimensions      [0 1 -1 0 0 0 0];

internalField   nonuniform List<vector> 
400
(
(0.00120348 -0.00120834 0)
(0.0004009 0.000672765 0)
(-0.00645144 0.00286742 0)
(-0.0179686 0.0043406 0)
(-0.0321747 0.00506942 0)
(-0.0472975 0.00518565 0)
(-0.0618317 0.00480618 0)
(-0.0744954 0.00400757 0)
(-0.0841748 0.00283755 0)
(-0.0899124 0.00134569 0)
(-0.0909657 -0.000383525 0)
(-0.0869291 -0.00220717 0)
(-0.0778856 -0.00391658 0)
(-0.0645414 -0.00525301 0)
(-0.0482895 -0.0059463 0)
(-0.03115 -0.00577357 0)
(-0.0155469 -0.00462898 0)
(-0.00390952 -0.00259448 0)
(0.00189192 -8.67052e-05 0)
(0.00157721 0.00152446 0)
(-0.00062344 -0.000512882 0)
(-0.00896419 0.00883918 0)
(-0.0300566 0.018403 0)
(-0.0603854 0.0249853 0)
(-0.095981 0.0282388 0)
(-0.133169 0.0284695 0)
(-0.168538 0.026074 0)
(-0.199034 0.0213983 0)
(-0.222007 0.0147509 0)
(-0.235257 0.00649955 0)
(-0.237196 -0.00281656 0)
(-0.227083 -0.0124096 0)
(-0.205299 -0.0212353 0)
(-0.173565 -0.0280774 0)
(-0.135015 -0.0317284 0)
(-0.0940195 -0.0312545 0)
(-0.0556696 -0.0263053 0)
(-0.0249208 -0.017413 0)
(-0.00570001 -0.00641525 0)
(0.00031252 0.00208292 0)
(-0.00307554 0.00649702 0)
(-0.0201058 0.0303308 0)
(-0.0555786 0.0520752 0)
(-0.10299 0.0669012 0)
(-0.156658 0.0739958 0)
(-0.211698 0.0737871 0)
(-0.263482 0.0670343 0)
(-0.307801 0.0545321 0)
(-0.340993 0.0371108 0)
(-0.360051 0.0158043 0)
(-0.362839 -0.00794525 0)
(-0.348388 -0.0321539 0)
(-0.317228 -0.0543052 0)
(-0.271655 -0.0715511 0)
(-0.215827 -0.081122 0)
(-0.155565 -0.0809204 0)
(-0.0977085 -0.0702142 0)
(-0.0490448 -0.0502791 0)
(-0.0155794 -0.0250314 0)
(-0.00167173 -0.00260527 0)
(-0.00527205 0.0195499 0)
(-0.0305688 0.0642346 0)
(-0.0798764 0.101425 0)
(-0.143252 0.125951 0)
(-0.21321 0.137017 0)
(-0.283894 0.135372 0)
(-0.34984 0.122252 0)
(-0.406091 0.099008 0)
(-0.448323 0.0671295 0)
(-0.472968 0.0284922 0)
(-0.477431 -0.0143414 0)
(-0.460425 -0.0579259 0)
(-0.422348 -0.0979521 0)
(-0.36563 -0.129562 0)
(-0.29494 -0.148001 0)
(-0.217091 -0.149583 0)
(-0.140414 -0.132845 0)
(-0.0736185 -0.0996029 0)
(-0.0253394 -0.0557546 0)
(-0.00346091 -0.0125727 0)
(-0.00717302 0.0379681 0)
(-0.0400213 0.109532 0)
(-0.102246 0.165035 0)
(-0.180481 0.200201 0)
(-0.265434 0.21497 0)
(-0.350395 0.210802 0)
(-0.429306 0.189601 0)
(-0.496728 0.15337 0)
(-0.547912 0.104305 0)
(-0.578851 0.0451584 0)
(-0.58648 -0.0203522 0)
(-0.569004 -0.0872515 0)
(-0.526341 -0.149293 0)
(-0.460602 -0.199333 0)
(-0.376507 -0.23019 0)
(-0.281542 -0.235995 0)
(-0.185509 -0.213891 0)
(-0.0994117 -0.165647 0)
(-0.0352322 -0.0987658 0)
(-0.00511002 -0.0275236 0)
(-0.00883613 0.0611586 0)
(-0.0484967 0.165318 0)
(-0.122544 0.241952 0)
(-0.214427 0.288671 0)
(-0.313153 0.306902 0)
(-0.411287 0.299286 0)
(-0.502367 0.268645 0)
(-0.580694 0.217727 0)
(-0.641272 0.14942 0)
(-0.679747 0.0672665 0)
(-0.692532 -0.0239734 0)
(-0.677112 -0.117881 0)
(-0.632543 -0.206249 0)
(-0.560112 -0.279415 0)
(-0.464065 -0.327236 0)
(-0.352179 -0.340812 0)
(-0.235677 -0.314851 0)
(-0.128276 -0.250116 0)
(-0.046205 -0.155193 0)
(-0.00687304 -0.0476249 0)
(-0.0103015 0.0885977 0)
(-0.0560393 0.230588 0)
(-0.140687 0.330992 0)
(-0.244803 0.390146 0)
(-0.355869 0.411695 0)
(-0.465892 0.399967 0)
(-0.568215 0.358984 0)
(-0.657104 0.29232 0)
(-0.727514 0.203484 0)
(-0.774868 0.096614 0)
(-0.795049 -0.0227478 0)
(-0.784648 -0.146997 0)
(-0.741494 -0.266101 0)
(-0.665492 -0.36774 0)
(-0.559739 -0.438247 0)
(-0.431681 -0.464611 0)
(-0.293649 -0.437615 0)
(-0.16237 -0.355519 0)
(-0.059412 -0.227125 0)
(-0.0090479 -0.0736643 0)
(-0.0115888 0.11979 0)
(-0.0626583 0.304252 0)
(-0.156538 0.430728 0)
(-0.271154 0.503043 0)
(-0.39266 0.527788 0)
(-0.512706 0.511521 0)
(-0.624701 0.459766 0)
(-0.723155 0.377006 0)
(-0.803244 0.267249 0)
(-0.860382 0.13495 0)
(-0.89004 -0.0139757 0)
(-0.887867 -0.171185 0)
(-0.850182 -0.325181 0)
(-0.774942 -0.461065 0)
(-0.663249 -0.561182 0)
(-0.521228 -0.607195 0)
(-0.361518 -0.583989 0)
(-0.203767 -0.485023 0)
(-0.0760815 -0.317689 0)
(-0.0119629 -0.107106 0)
(-0.0127184 0.154246 0)
(-0.0683814 0.385143 0)
(-0.169979 0.539474 0)
(-0.292944 0.625298 0)
(-0.422268 0.652942 0)
(-0.549501 0.63179 0)
(-0.668439 0.569221 0)
(-0.774204 0.470716 0)
(-0.86257 0.34065 0)
(-0.929301 0.183445 0)
(-0.969755 0.00486887 0)
(-0.978805 -0.186648 0)
(-0.951182 -0.378798 0)
(-0.882432 -0.554541 0)
(-0.77071 -0.692106 0)
(-0.619416 -0.766703 0)
(-0.43998 -0.754906 0)
(-0.254113 -0.642003 0)
(-0.0974739 -0.430955 0)
(-0.016 -0.150118 0)
(-0.0137582 0.191518 0)
(-0.0733991 0.472077 0)
(-0.181136 0.655256 0)
(-0.309808 0.754199 0)
(-0.443373 0.783914 0)
(-0.573595 0.757334 0)
(-0.695081 0.684096 0)
(-0.804035 0.57081 0)
(-0.897326 0.422096 0)
(-0.971595 0.241984 0)
(-1.02261 0.0354969 0)
(-1.04493 -0.18967 0)
(-1.03196 -0.421386 0)
(-0.976633 -0.64142 0)
(-0.873309 -0.82438 0)
(-0.720938 -0.938375 0)
(-0.527347 -0.949131 0)
(-0.314189 -0.829127 0)
(-0.124869 -0.571619 0)
(-0.0216472 -0.205622 0)
(-0.0149034 0.231351 0)
(-0.0783031 0.56403 0)
(-0.190733 0.775854 0)
(-0.321943 0.886231 0)
(-0.454959 0.916148 0)
(-0.582216 0.882978 0)
(-0.699705 0.799102 0)
(-0.805297 0.672429 0)
(-0.897567 0.507735 0)
(-0.974696 0.308346 0)
(-1.03361 0.0779505 0)
(-1.06933 -0.177407 0)
(-1.07462 -0.447057 0)
(-1.04017 -0.713131 0)
(-0.956066 -0.948042 0)
(-0.815079 -1.11321 0)
(-0.618227 -1.16148 0)
(-0.383222 -1.04686 0)
(-0.159516 -0.744417 0)
(-0.0295783 -0.277379 0)
(-0.0166136 0.274023 0)
(-0.0844442 0.66052 0)
(-0.200541 0.89891 0)
(-0.330506 1.01692 0)
(-0.456627 1.04343 0)
(-0.57278 1.00139 0)
(-0.677142 0.906436 0)
(-0.769973 0.767951 0)
(-0.852232 0.590819 0)
(-0.924362 0.377426 0)
(-0.985306 0.129657 0)
(-1.03161 -0.148957 0)
(-1.05656 -0.450632 0)
(-1.04967 -0.759964 0)
(-0.997079 -1.04974 0)
(-0.884247 -1.27678 0)
(-0.701829 -1.3807 0)
(-0.457747 -1.29125 0)
(-0.202458 -0.953039 0)
(-0.0407647 -0.370144 0)
(-0.019852 0.320987 0)
(-0.0944498 0.762171 0)
(-0.213829 1.02199 0)
(-0.337761 1.14052 0)
(-0.448448 1.15745 0)
(-0.542597 1.10263 0)
(-0.621743 0.995421 0)
(-0.689394 0.84669 0)
(-0.749551 0.661354 0)
(-0.805559 0.440731 0)
(-0.85917 0.184638 0)
(-0.90956 -0.106508 0)
(-0.952088 -0.429085 0)
(-0.976852 -0.772504 0)
(-0.967689 -1.11354 0)
(-0.902928 -1.40877 0)
(-0.760018 -1.58723 0)
(-0.529831 -1.55078 0)
(-0.254016 -1.19818 0)
(-0.0565957 -0.489858 0)
(-0.0265046 0.376014 0)
(-0.112906 0.871363 0)
(-0.235479 1.14225 0)
(-0.346297 1.24919 0)
(-0.429461 1.24698 0)
(-0.487033 1.17366 0)
(-0.525586 1.05231 0)
(-0.552808 0.89496 0)
(-0.576243 0.706304 0)
(-0.602467 0.486491 0)
(-0.636483 0.233277 0)
(-0.680924 -0.0561659 0)
(-0.734702 -0.383109 0)
(-0.790869 -0.743783 0)
(-0.83391 -1.12308 0)
(-0.837493 -1.48385 0)
(-0.765339 -1.75174 0)
(-0.584388 -1.8025 0)
(-0.312449 -1.47402 0)
(-0.0788548 -0.643576 0)
(-0.0400057 0.447078 0)
(-0.146909 0.992464 0)
(-0.270652 1.25495 0)
(-0.35554 1.33115 0)
(-0.392808 1.29647 0)
(-0.394161 1.19763 0)
(-0.373314 1.06035 0)
(-0.342891 0.896763 0)
(-0.314017 0.710659 0)
(-0.296227 0.500837 0)
(-0.297511 0.263226 0)
(-0.324046 -0.00779294 0)
(-0.379174 -0.318145 0)
(-0.461119 -0.671737 0)
(-0.559 -1.06502 0)
(-0.647052 -1.47483 0)
(-0.6791 -1.83565 0)
(-0.595057 -2.00827 0)
(-0.37054 -1.76261 0)
(-0.108917 -0.838493 0)
(-0.0657145 0.549482 0)
(-0.204747 1.13015 0)
(-0.318356 1.34904 0)
(-0.351054 1.36663 0)
(-0.313277 1.28371 0)
(-0.232435 1.15327 0)
(-0.131001 1.0006 0)
(-0.026268 0.835637 0)
(0.0680869 0.659957 0)
(0.140865 0.470631 0)
(0.18238 0.262135 0)
(0.183935 0.0270623 0)
(0.138135 -0.243754 0)
(0.0404919 -0.560802 0)
(-0.10655 -0.933126 0)
(-0.285254 -1.3581 0)
(-0.44944 -1.79478 0)
(-0.51777 -2.11277 0)
(-0.407779 -2.02687 0)
(-0.144222 -1.08078 0)
(-0.108542 0.71213 0)
(-0.286065 1.28075 0)
(-0.348952 1.39357 0)
(-0.276101 1.31803 0)
(-0.119746 1.17511 0)
(0.0729654 1.01428 0)
(0.2729 0.853944 0)
(0.461262 0.698155 0)
(0.624937 0.544564 0)
(0.753837 0.388114 0)
(0.839007 0.222359 0)
(0.871419 0.0395078 0)
(0.841488 -0.170451 0)
(0.739378 -0.421206 0)
(0.557382 -0.731271 0)
(0.297838 -1.11998 0)
(-0.00898906 -1.58558 0)
(-0.281511 -2.04312 0)
(-0.376043 -2.2005 0)
(-0.167781 -1.37372 0)
(-0.155421 0.978431 0)
(-0.340078 1.40042 0)
(-0.237095 1.30641 0)
(0.0334796 1.11473 0)
(0.355061 0.923748 0)
(0.674838 0.754304 0)
(0.969831 0.608654 0)
(1.22815 0.481896 0)
(1.44297 0.367102 0)
(1.60936 0.257501 0)
(1.7222 0.146735 0)
(1.77484 0.0282425 0)
(1.75836 -0.106056 0)
(1.66052 -0.268164 0)
(1.46546 -0.47818 0)
(1.15693 -0.768854 0)
(0.731258 -1.18063 0)
(0.228209 -1.71332 0)
(-0.173244 -2.15943 0)
(-0.118901 -1.67496 0)
(-0.0475374 1.26947 0)
(-0.0720171 1.31685 0)
(0.411491 0.968955 0)
(0.958268 0.70955 0)
(1.42959 0.529349 0)
(1.82324 0.398428 0)
(2.14935 0.301147 0)
(2.41427 0.22614 0)
(2.62279 0.16459 0)
(2.77791 0.110116 0)
(2.88014 0.0580068 0)
(2.92701 0.00428403 0)
(2.9128 -0.0552927 0)
(2.82703 -0.127353 0)
(2.65188 -0.224381 0)
(2.35844 -0.373279 0)
(1.90184 -0.630375 0)
(1.22457 -1.07919 0)
(0.452848 -1.68852 0)
(0.217506 -1.70178 0)
(1.43828 0.70721 0)
(1.83573 0.626587 0)
(2.56339 0.398284 0)
(3.13748 0.251671 0)
(3.51189 0.164259 0)
(3.76909 0.109432 0)
(3.95666 0.074004 0)
(4.09504 0.0502392 0)
(4.19519 0.0331226 0)
(4.26355 0.0195236 0)
(4.30322 0.0074932 0)
(4.3147 -0.00430666 0)
(4.29614 -0.0169546 0)
(4.24277 -0.0321734 0)
(4.14479 -0.0531794 0)
(3.98105 -0.0879823 0)
(3.70232 -0.158356 0)
(3.17425 -0.316156 0)
(2.29946 -0.622745 0)
(1.66822 -0.779851 0)
)
;

boundaryField
{
    movingWall
    {
        type            fixedValue;
        value           uniform (5.07398 0 0);
    }
    fixedWalls
    {
        type            noSlip;
    }
    frontAndBack
    {
        type            empty;
    }
}


// ************************************************************************* //
