/*--------------------------------*- C++ -*----------------------------------*\
| =========                 |                                                 |
| \\      /  F ield         | OpenFOAM: The Open Source CFD Toolbox           |
|  \\    /   O peration     | Version:  2212                                  |
|   \\  /    A nd           | Website:  www.openfoam.com                      |
|    \\/     M anipulation  |                                                 |
\*---------------------------------------------------------------------------*/
FoamFile
{
    version     2.0;
    format      ascii;
    arch        "LSB;label=32;scalar=64";
    class       volVectorField;
    location    "0.5";
    object      U;
}
// * * * * * * * * * * * * * * * * * * * * * * * * * * * * * * * * * * * * * //

dimensions      [0 1 -1 0 0 0 0];

internalField   nonuniform List<vector> 
44
(
(0.000635852 0 0)
(0.00189108 0 0)
(0.00309751 0 0)
(0.0042245 0 0)
(0.00524407 0 0)
(0.0061316 0 0)
(0.00686635 0 0)
(0.00192405 0 0)
(0.00572215 0 0)
(0.00937214 0 0)
(0.0127812 0 0)
(0.0158646 0 0)
(0.018548 0 0)
(0.0207689 0 0)
(0.00326233 0 0)
(0.00970167 0 0)
(0.0158884 0 0)
(0.0216645 0 0)
(0.0268863 0 0)
(0.0314283 0 0)
(0.0351856 0 0)
(0.00468611 0 0)
(0.0139345 0 0)
(0.0228164 0 0)
(0.0311036 0 0)
(0.0385898 0 0)
(0.0450959 0 0)
(0.0504734 0 0)
(0.00623399 0 0)
(0.0185347 0 0)
(0.0303408 0 0)
(0.0413461 0 0)
(0.0512762 0 0)
(0.0598956 0 0)
(0.0670108 0 0)
(0.00794955 0 0)
(0.0236306 0 0)
(0.0386681 0 0)
(0.0526668 0 0)
(0.0652769 0 0)
(0.0762039 0 0)
(0.0852076 0 0)
(0.0944397 0 0)
(0.105515 0 0)
)
;

boundaryField
{
    movingWall
    {
        type            fixedValue;
        value           nonuniform List<vector> 0();
    }
    fixedWalls
    {
        type            noSlip;
    }
    frontAndBack
    {
        type            empty;
    }
    procBoundary0to1
    {
        type            processor;
        value           nonuniform List<vector> 6((0.00743212 0 0) (0.0224787 0 0) (0.0380766 0 0) (0.0546076 0 0) (0.0724745 0 0) (0.0921099 0 0));
    }
    procBoundary0to3
    {
        type            processor;
        value           nonuniform List<vector> 8((0.00988403 0 0) (0.0293726 0 0) (0.0480383 0 0) (0.0653819 0 0) (0.080968 0 0) (0.080968 0 0) (0.115084 0 0) (0.128439 0 0));
    }
    procBoundary0to4
    {
        type            processor;
        value           uniform (0.113989 0 0);
    }
}


// ************************************************************************* //
