/*--------------------------------*- C++ -*----------------------------------*\
| =========                 |                                                 |
| \\      /  F ield         | OpenFOAM: The Open Source CFD Toolbox           |
|  \\    /   O peration     | Version:  2212                                  |
|   \\  /    A nd           | Website:  www.openfoam.com                      |
|    \\/     M anipulation  |                                                 |
\*---------------------------------------------------------------------------*/
FoamFile
{
    version     2.0;
    format      ascii;
    arch        "LSB;label=32;scalar=64";
    class       volVectorField;
    location    "0.5";
    object      U;
}
// * * * * * * * * * * * * * * * * * * * * * * * * * * * * * * * * * * * * * //

dimensions      [0 1 -1 0 0 0 0];

internalField   nonuniform List<vector> 
45
(
(0.0312312 0 0)
(0.0921322 0 0)
(0.148709 0 0)
(0.0382906 0 0)
(0.112473 0 0)
(0.180258 0 0)
(0.239236 0 0)
(0.288482 0 0)
(0.32806 0 0)
(0.047749 0 0)
(0.139214 0 0)
(0.220615 0 0)
(0.289187 0 0)
(0.344629 0 0)
(0.387922 0 0)
(0.0612413 0 0)
(0.176019 0 0)
(0.273804 0 0)
(0.352272 0 0)
(0.412928 0 0)
(0.458535 0 0)
(0.0824387 0 0)
(0.22982 0 0)
(0.34631 0 0)
(0.433172 0 0)
(0.49628 0 0)
(0.541481 0 0)
(0.121132 0 0)
(0.314513 0 0)
(0.448447 0 0)
(0.537829 0 0)
(0.597543 0 0)
(0.637821 0 0)
(0.20871 0 0)
(0.458655 0 0)
(0.595135 0 0)
(0.672156 0 0)
(0.718245 0 0)
(0.747246 0 0)
(0.463763 0 0)
(0.716261 0 0)
(0.801284 0 0)
(0.837417 0 0)
(0.856037 0 0)
(0.866918 0 0)
)
;

boundaryField
{
    movingWall
    {
        type            fixedValue;
        value           uniform (0.928803 0 0);
    }
    fixedWalls
    {
        type            noSlip;
    }
    frontAndBack
    {
        type            empty;
    }
    procBoundary6to3
    {
        type            processor;
        value           nonuniform List<vector> 7((0.025734 0 0) (0.0761179 0 0) (0.123432 0 0) (0.199022 0 0) (0.199022 0 0) (0.242012 0 0) (0.277315 0 0));
    }
    procBoundary6to7
    {
        type            processor;
        value           nonuniform List<vector> 7((0.358535 0 0) (0.420472 0 0) (0.491815 0 0) (0.573293 0 0) (0.665017 0 0) (0.766004 0 0) (0.8737 0 0));
    }
}


// ************************************************************************* //
