/*--------------------------------*- C++ -*----------------------------------*\
| =========                 |                                                 |
| \\      /  F ield         | OpenFOAM: The Open Source CFD Toolbox           |
|  \\    /   O peration     | Version:  2212                                  |
|   \\  /    A nd           | Website:  www.openfoam.com                      |
|    \\/     M anipulation  |                                                 |
\*---------------------------------------------------------------------------*/
FoamFile
{
    version     2.0;
    format      ascii;
    arch        "LSB;label=32;scalar=64";
    class       volVectorField;
    location    "0.1";
    object      U;
}
// * * * * * * * * * * * * * * * * * * * * * * * * * * * * * * * * * * * * * //

dimensions      [0 1 -1 0 0 0 0];

internalField   nonuniform List<vector> 
45
(
(0.0268492 0 0)
(0.0790943 0 0)
(0.127337 0 0)
(0.0341727 0 0)
(0.100221 0 0)
(0.160174 0 0)
(0.211816 0 0)
(0.254402 0 0)
(0.28816 0 0)
(0.0440162 0 0)
(0.128107 0 0)
(0.202409 0 0)
(0.264332 0 0)
(0.313736 0 0)
(0.351755 0 0)
(0.0580077 0 0)
(0.166398 0 0)
(0.258033 0 0)
(0.330741 0 0)
(0.386168 0 0)
(0.427206 0 0)
(0.0798065 0 0)
(0.221989 0 0)
(0.333473 0 0)
(0.415646 0 0)
(0.474498 0 0)
(0.515979 0 0)
(0.119187 0 0)
(0.308725 0 0)
(0.438959 0 0)
(0.524877 0 0)
(0.581445 0 0)
(0.618975 0 0)
(0.207516 0 0)
(0.455102 0 0)
(0.589312 0 0)
(0.664206 0 0)
(0.708365 0 0)
(0.735679 0 0)
(0.46336 0 0)
(0.715064 0 0)
(0.799321 0 0)
(0.834736 0 0)
(0.852706 0 0)
(0.863018 0 0)
)
;

boundaryField
{
    movingWall
    {
        type            fixedValue;
        value           uniform (0.928803 0 0);
    }
    fixedWalls
    {
        type            noSlip;
    }
    frontAndBack
    {
        type            empty;
    }
    procBoundary6to3
    {
        type            processor;
        value           nonuniform List<vector> 7((0.0212108 0 0) (0.06266 0 0) (0.101371 0 0) (0.169843 0 0) (0.169843 0 0) (0.205746 0 0) (0.234856 0 0));
    }
    procBoundary6to7
    {
        type            processor;
        value           nonuniform List<vector> 7((0.3138 0 0) (0.379923 0 0) (0.456691 0 0) (0.544702 0 0) (0.643888 0 0) (0.753035 0 0) (0.869328 0 0));
    }
}


// ************************************************************************* //
