# Probe 0 (0.0425 0.0975 0.005)
# Probe 1 (0.0475 0.0975 0.005)
# Probe 2 (0.0525 0.0975 0.005)
# Probe 3 (0.0575 0.0975 0.005)
# Probe 4 (0.06 0.0975 0.005)
# Time        0             1             2             3             4            
0             (0 0 0)       (0 0 0)       (0 0 0)       (0 0 0)       (0 0 0)      
