/*--------------------------------*- C++ -*----------------------------------*\
| =========                 |                                                 |
| \\      /  F ield         | OpenFOAM: The Open Source CFD Toolbox           |
|  \\    /   O peration     | Version:  2212                                  |
|   \\  /    A nd           | Website:  www.openfoam.com                      |
|    \\/     M anipulation  |                                                 |
\*---------------------------------------------------------------------------*/
FoamFile
{
    version     2.0;
    format      ascii;
    arch        "LSB;label=32;scalar=64";
    class       volVectorField;
    location    "0.4";
    object      U;
}
// * * * * * * * * * * * * * * * * * * * * * * * * * * * * * * * * * * * * * //

dimensions      [0 1 -1 0 0 0 0];

internalField   nonuniform List<vector> 
44
(
(0.00741898 0 0)
(0.0078025 0 0)
(0.0079963 0 0)
(0.00799632 0 0)
(0.00780256 0 0)
(0.00741909 0 0)
(0.00685412 0 0)
(0.0224395 0 0)
(0.0235983 0 0)
(0.0241839 0 0)
(0.0241839 0 0)
(0.0235985 0 0)
(0.0224399 0 0)
(0.0207325 0 0)
(0.0380122 0 0)
(0.039971 0 0)
(0.0409606 0 0)
(0.0409607 0 0)
(0.0399714 0 0)
(0.0380128 0 0)
(0.0351258 0 0)
(0.0545194 0 0)
(0.0573191 0 0)
(0.0587329 0 0)
(0.0587331 0 0)
(0.0573196 0 0)
(0.0545202 0 0)
(0.0503913 0 0)
(0.0723644 0 0)
(0.0760616 0 0)
(0.0779275 0 0)
(0.0779275 0 0)
(0.0760621 0 0)
(0.0723652 0 0)
(0.0669077 0 0)
(0.0919801 0 0)
(0.096646 0 0)
(0.0989986 0 0)
(0.0989981 0 0)
(0.0966467 0 0)
(0.0919807 0 0)
(0.0850844 0 0)
(0.119557 0 0)
(0.113838 0 0)
)
;

boundaryField
{
    movingWall
    {
        type            fixedValue;
        value           nonuniform List<vector> 0();
    }
    fixedWalls
    {
        type            noSlip;
    }
    frontAndBack
    {
        type            empty;
    }
    procBoundary1to0
    {
        type            processor;
        value           nonuniform List<vector> 6((0.00685421 0 0) (0.0207327 0 0) (0.0351261 0 0) (0.0503918 0 0) (0.0669089 0 0) (0.0850876 0 0));
    }
    procBoundary1to2
    {
        type            processor;
        value           nonuniform List<vector> 8((0.00612051 0 0) (0.018515 0 0) (0.031374 0 0) (0.0450216 0 0) (0.0598028 0 0) (0.0760948 0 0) (0.105377 0 0) (0.105377 0 0));
    }
    procBoundary1to4
    {
        type            processor;
        value           nonuniform List<vector> 7((0.113843 0 0) (0.119562 0 0) (0.122441 0 0) (0.122438 0 0) (0.122438 0 0) (0.145328 0 0) (0.138466 0 0));
    }
}


// ************************************************************************* //
