/*--------------------------------*- C++ -*----------------------------------*\
| =========                 |                                                 |
| \\      /  F ield         | OpenFOAM: The Open Source CFD Toolbox           |
|  \\    /   O peration     | Version:  2212                                  |
|   \\  /    A nd           | Website:  www.openfoam.com                      |
|    \\/     M anipulation  |                                                 |
\*---------------------------------------------------------------------------*/
FoamFile
{
    version     2.0;
    format      ascii;
    arch        "LSB;label=32;scalar=64";
    class       volVectorField;
    location    "0.2";
    object      U;
}
// * * * * * * * * * * * * * * * * * * * * * * * * * * * * * * * * * * * * * //

dimensions      [0 1 -1 0 0 0 0];

internalField   nonuniform List<vector> 
46
(
(0.352116 0 0)
(0.32234 0 0)
(0.283598 0 0)
(0.235306 0 0)
(0.41474 0 0)
(0.382814 0 0)
(0.340267 0 0)
(0.285679 0 0)
(0.218045 0 0)
(0.137646 0 0)
(0.0472221 0 0)
(0.486915 0 0)
(0.454168 0 0)
(0.4092 0 0)
(0.349273 0 0)
(0.271607 0 0)
(0.174679 0 0)
(0.060791 0 0)
(0.569348 0 0)
(0.537966 0 0)
(0.493279 0 0)
(0.430758 0 0)
(0.344542 0 0)
(0.228742 0 0)
(0.0820762 0 0)
(0.662126 0 0)
(0.635245 0 0)
(0.595344 0 0)
(0.53606 0 0)
(0.447151 0 0)
(0.313723 0 0)
(0.120867 0 0)
(0.76424 0 0)
(0.745674 0 0)
(0.716903 0 0)
(0.671077 0 0)
(0.594345 0 0)
(0.458173 0 0)
(0.208548 0 0)
(0.873107 0 0)
(0.866389 0 0)
(0.855586 0 0)
(0.837054 0 0)
(0.801018 0 0)
(0.716099 0 0)
(0.463708 0 0)
)
;

boundaryField
{
    movingWall
    {
        type            fixedValue;
        value           uniform (0.928803 0 0);
    }
    fixedWalls
    {
        type            noSlip;
    }
    frontAndBack
    {
        type            empty;
    }
    procBoundary8to4
    {
        type            processor;
        value           uniform (0.373656 0 0);
    }
    procBoundary8to5
    {
        type            processor;
        value           nonuniform List<vector> 8((0.298062 0 0) (0.271125 0 0) (0.236727 0 0) (0.194772 0 0) (0.177379 0 0) (0.177379 0 0) (0.110718 0 0) (0.0377006 0 0));
    }
    procBoundary8to7
    {
        type            processor;
        value           nonuniform List<vector> 6((0.43741 0 0) (0.509656 0 0) (0.590587 0 0) (0.679821 0 0) (0.776142 0 0) (0.877332 0 0));
    }
}


// ************************************************************************* //
