/*--------------------------------*- C++ -*----------------------------------*\
  =========                 |
  \\      /  F ield         | OpenFOAM: The Open Source CFD Toolbox
   \\    /   O peration     | Website:  https://openfoam.org
    \\  /    A nd           | Version:  9
     \\/     M anipulation  |
\*---------------------------------------------------------------------------*/
FoamFile
{
    format      ascii;
    class       surfaceScalarField;
    location    "0.025";
    object      phi;
}
// * * * * * * * * * * * * * * * * * * * * * * * * * * * * * * * * * * * * * //

dimensions      [0 3 -1 0 0 0 0];

internalField   nonuniform List<scalar> 
66
(
-2.37221e-05
-1.23691e-07
-2.32025e-05
-4.12133e-06
-2.22995e-05
-8.08014e-06
-1.24557e-05
-2.6273e-05
-2.27583e-07
-2.58003e-05
-4.59405e-06
-2.49048e-05
-8.97566e-06
-1.3893e-05
-2.7518e-05
-1.76569e-07
-2.72595e-05
-4.85256e-06
-2.65824e-05
-9.65271e-06
-1.50751e-05
-2.63244e-05
2.6007e-08
-2.64039e-05
-4.77306e-06
-2.62474e-05
-9.80923e-06
-1.55881e-05
-2.13811e-05
2.34905e-07
-2.18344e-05
-4.31983e-06
-2.23823e-05
-9.26134e-06
-1.51523e-05
-1.08456e-05
3.04378e-07
-1.15698e-05
-3.59566e-06
-1.28523e-05
-7.97884e-06
-1.34815e-05
7.93735e-06
3.33708e-08
7.09414e-06
-2.75245e-06
5.1208e-06
-6.00549e-06
-1.04241e-05
3.67186e-05
-2.3598e-07
3.58073e-05
-1.84113e-06
3.34639e-05
-3.66209e-06
-6.44053e-06
7.84231e-05
-2.50218e-07
7.73668e-05
-7.84892e-07
7.50328e-05
-1.32803e-06
-2.26444e-06
0.000136773
0.000135988
0.00013466
)
;

boundaryField
{
    movingWall
    {
        type            calculated;
        value           uniform 0;
    }
    fixedWalls
    {
        type            calculated;
        value           nonuniform List<scalar> 0();
    }
    frontAndBack
    {
        type            empty;
        value           nonuniform List<scalar> 0();
    }
    procBoundary6to3
    {
        type            processor;
        value           nonuniform List<scalar> 5(2.38994e-05 2.63769e-05 2.7467e-05 2.61218e-05 2.11722e-05);
    }
    procBoundary6to4
    {
        type            processor;
        value           nonuniform List<scalar> 5(1.07761e-05 -7.66634e-06 -3.64492e-05 -7.84088e-05 -0.000137023);
    }
    procBoundary6to5
    {
        type            processor;
        value           nonuniform List<scalar> 4(-5.36147e-08 3.60173e-06 7.17719e-06 1.10304e-05);
    }
    procBoundary6to8
    {
        type            processor;
        value           nonuniform List<scalar> 4(-2.08742e-05 -2.34675e-05 -2.54003e-05 -2.57343e-05);
    }
    procBoundary6to9
    {
        type            processor;
        value           nonuniform List<scalar> 6(-2.28181e-05 -1.45231e-05 2.0634e-06 2.94804e-05 7.08567e-05 0.000132395);
    }
}


// ************************************************************************* //
