/*--------------------------------*- C++ -*----------------------------------*\
| =========                 |                                                 |
| \\      /  F ield         | OpenFOAM: The Open Source CFD Toolbox           |
|  \\    /   O peration     | Version:  2212                                  |
|   \\  /    A nd           | Website:  www.openfoam.com                      |
|    \\/     M anipulation  |                                                 |
\*---------------------------------------------------------------------------*/
FoamFile
{
    version     2.0;
    format      ascii;
    arch        "LSB;label=32;scalar=64";
    class       volVectorField;
    location    "0.2";
    object      U;
}
// * * * * * * * * * * * * * * * * * * * * * * * * * * * * * * * * * * * * * //

dimensions      [0 1 -1 0 0 0 0];

internalField   nonuniform List<vector> 
400
(
(0.000609682 0 0)
(0.00181318 0 0)
(0.00296967 0 0)
(0.00404976 0 0)
(0.0050266 0 0)
(0.00587668 0 0)
(0.00658025 0 0)
(0.00712154 0 0)
(0.00748882 0 0)
(0.00767435 0 0)
(0.00767428 0 0)
(0.00748863 0 0)
(0.00712123 0 0)
(0.00657984 0 0)
(0.0058762 0 0)
(0.00502607 0 0)
(0.00404923 0 0)
(0.0029692 0 0)
(0.00181282 0 0)
(0.000609532 0 0)
(0.00184763 0 0)
(0.00549464 0 0)
(0.0089988 0 0)
(0.0122708 0 0)
(0.0152293 0 0)
(0.0178032 0 0)
(0.0199329 0 0)
(0.0215711 0 0)
(0.0226824 0 0)
(0.0232437 0 0)
(0.0232435 0 0)
(0.0226818 0 0)
(0.0215702 0 0)
(0.0199318 0 0)
(0.0178019 0 0)
(0.0152279 0 0)
(0.0122693 0 0)
(0.0089975 0 0)
(0.00549367 0 0)
(0.00184723 0 0)
(0.00314195 0 0)
(0.00934323 0 0)
(0.0153001 0 0)
(0.02086 0 0)
(0.0258846 0 0)
(0.0302536 0 0)
(0.0338667 0 0)
(0.0366443 0 0)
(0.038528 0 0)
(0.0394792 0 0)
(0.0394789 0 0)
(0.0385272 0 0)
(0.0366431 0 0)
(0.033865 0 0)
(0.0302517 0 0)
(0.0258825 0 0)
(0.0208579 0 0)
(0.0152982 0 0)
(0.00934185 0 0)
(0.00314138 0 0)
(0.00453226 0 0)
(0.0134763 0 0)
(0.0220641 0 0)
(0.0300744 0 0)
(0.0373075 0 0)
(0.0435911 0 0)
(0.0487829 0 0)
(0.052771 0 0)
(0.0554739 0 0)
(0.0568383 0 0)
(0.056838 0 0)
(0.055473 0 0)
(0.0527695 0 0)
(0.0487809 0 0)
(0.0435888 0 0)
(0.037305 0 0)
(0.0300719 0 0)
(0.0220619 0 0)
(0.0134747 0 0)
(0.0045316 0 0)
(0.0060614 0 0)
(0.0180205 0 0)
(0.0294959 0 0)
(0.0401891 0 0)
(0.0498331 0 0)
(0.0582 0 0)
(0.0651039 0 0)
(0.0704012 0 0)
(0.0739881 0 0)
(0.0757976 0 0)
(0.0757973 0 0)
(0.0739871 0 0)
(0.0703996 0 0)
(0.0651018 0 0)
(0.0581975 0 0)
(0.0498305 0 0)
(0.0401865 0 0)
(0.0294936 0 0)
(0.0180187 0 0)
(0.00606069 0 0)
(0.00777717 0 0)
(0.0231166 0 0)
(0.0378224 0 0)
(0.0515066 0 0)
(0.0638269 0 0)
(0.0744955 0 0)
(0.0832825 0 0)
(0.0900137 0 0)
(0.0945657 0 0)
(0.0968604 0 0)
(0.0968601 0 0)
(0.0945648 0 0)
(0.0900122 0 0)
(0.0832805 0 0)
(0.0744931 0 0)
(0.0638243 0 0)
(0.0515041 0 0)
(0.0378202 0 0)
(0.0231149 0 0)
(0.00777646 0 0)
(0.00973476 0 0)
(0.0289268 0 0)
(0.0473027 0 0)
(0.0643686 0 0)
(0.0796966 0 0)
(0.0929354 0 0)
(0.103812 0 0)
(0.112125 0 0)
(0.117737 0 0)
(0.120563 0 0)
(0.120563 0 0)
(0.117736 0 0)
(0.112123 0 0)
(0.10381 0 0)
(0.0929332 0 0)
(0.0796943 0 0)
(0.0643663 0 0)
(0.0473006 0 0)
(0.0289252 0 0)
(0.00973409 0 0)
(0.0120001 0 0)
(0.0356437 0 0)
(0.0582415 0 0)
(0.0791717 0 0)
(0.0979082 0 0)
(0.114033 0 0)
(0.127236 0 0)
(0.137296 0 0)
(0.144073 0 0)
(0.14748 0 0)
(0.14748 0 0)
(0.144072 0 0)
(0.137295 0 0)
(0.127234 0 0)
(0.114032 0 0)
(0.0979062 0 0)
(0.0791697 0 0)
(0.0582397 0 0)
(0.0356423 0 0)
(0.0119995 0 0)
(0.0146552 0 0)
(0.0435048 0 0)
(0.0710098 0 0)
(0.0963894 0 0)
(0.119006 0 0)
(0.138376 0 0)
(0.154162 0 0)
(0.166144 0 0)
(0.174189 0 0)
(0.178226 0 0)
(0.178226 0 0)
(0.174188 0 0)
(0.166143 0 0)
(0.154161 0 0)
(0.138375 0 0)
(0.119004 0 0)
(0.0963878 0 0)
(0.0710084 0 0)
(0.0435037 0 0)
(0.0146547 0 0)
(0.017806 0 0)
(0.0528147 0 0)
(0.0860747 0 0)
(0.116604 0 0)
(0.143639 0 0)
(0.166643 0 0)
(0.185275 0 0)
(0.199341 0 0)
(0.208747 0 0)
(0.213455 0 0)
(0.213455 0 0)
(0.208747 0 0)
(0.19934 0 0)
(0.185274 0 0)
(0.166643 0 0)
(0.143638 0 0)
(0.116603 0 0)
(0.0860737 0 0)
(0.0528139 0 0)
(0.0178056 0 0)
(0.0215961 0 0)
(0.0639806 0 0)
(0.104046 0 0)
(0.140553 0 0)
(0.172603 0 0)
(0.199633 0 0)
(0.221346 0 0)
(0.237623 0 0)
(0.24845 0 0)
(0.253853 0 0)
(0.253853 0 0)
(0.24845 0 0)
(0.237623 0 0)
(0.221345 0 0)
(0.199633 0 0)
(0.172603 0 0)
(0.140552 0 0)
(0.104046 0 0)
(0.0639802 0 0)
(0.0215959 0 0)
(0.0262301 0 0)
(0.0775731 0 0)
(0.125754 0 0)
(0.169199 0 0)
(0.206887 0 0)
(0.238293 0 0)
(0.263246 0 0)
(0.281782 0 0)
(0.294029 0 0)
(0.300114 0 0)
(0.300114 0 0)
(0.294029 0 0)
(0.281782 0 0)
(0.263246 0 0)
(0.238294 0 0)
(0.206888 0 0)
(0.169199 0 0)
(0.125754 0 0)
(0.0775729 0 0)
(0.02623 0 0)
(0.0320167 0 0)
(0.0944326 0 0)
(0.152373 0 0)
(0.203837 0 0)
(0.247748 0 0)
(0.283752 0 0)
(0.311948 0 0)
(0.332649 0 0)
(0.346209 0 0)
(0.352911 0 0)
(0.352911 0 0)
(0.346209 0 0)
(0.33265 0 0)
(0.311948 0 0)
(0.283752 0 0)
(0.247749 0 0)
(0.203838 0 0)
(0.152373 0 0)
(0.0944328 0 0)
(0.0320167 0 0)
(0.0394544 0 0)
(0.115868 0 0)
(0.185633 0 0)
(0.246256 0 0)
(0.296796 0 0)
(0.337346 0 0)
(0.368513 0 0)
(0.391057 0 0)
(0.405667 0 0)
(0.412841 0 0)
(0.412841 0 0)
(0.405667 0 0)
(0.391058 0 0)
(0.368514 0 0)
(0.337347 0 0)
(0.296798 0 0)
(0.246257 0 0)
(0.185634 0 0)
(0.115869 0 0)
(0.0394545 0 0)
(0.0494183 0 0)
(0.144048 0 0)
(0.228186 0 0)
(0.298966 0 0)
(0.356096 0 0)
(0.400626 0 0)
(0.434043 0 0)
(0.457771 0 0)
(0.472948 0 0)
(0.480344 0 0)
(0.480344 0 0)
(0.472949 0 0)
(0.457772 0 0)
(0.434044 0 0)
(0.400628 0 0)
(0.356098 0 0)
(0.298968 0 0)
(0.228188 0 0)
(0.144048 0 0)
(0.0494185 0 0)
(0.0636175 0 0)
(0.182801 0 0)
(0.284236 0 0)
(0.365514 0 0)
(0.428229 0 0)
(0.475292 0 0)
(0.509566 0 0)
(0.533367 0 0)
(0.548359 0 0)
(0.555601 0 0)
(0.555601 0 0)
(0.54836 0 0)
(0.533368 0 0)
(0.509568 0 0)
(0.475294 0 0)
(0.428231 0 0)
(0.365516 0 0)
(0.284237 0 0)
(0.182802 0 0)
(0.0636177 0 0)
(0.0858918 0 0)
(0.239375 0 0)
(0.36056 0 0)
(0.450785 0 0)
(0.516214 0 0)
(0.562981 0 0)
(0.595826 0 0)
(0.618053 0 0)
(0.631819 0 0)
(0.638404 0 0)
(0.638404 0 0)
(0.63182 0 0)
(0.618055 0 0)
(0.595827 0 0)
(0.562983 0 0)
(0.516216 0 0)
(0.450787 0 0)
(0.360561 0 0)
(0.239376 0 0)
(0.0858921 0 0)
(0.126485 0 0)
(0.328307 0 0)
(0.467938 0 0)
(0.560981 0 0)
(0.623022 0 0)
(0.664779 0 0)
(0.692913 0 0)
(0.711431 0 0)
(0.7227 0 0)
(0.728039 0 0)
(0.728039 0 0)
(0.722701 0 0)
(0.711432 0 0)
(0.692914 0 0)
(0.664781 0 0)
(0.623023 0 0)
(0.560982 0 0)
(0.467939 0 0)
(0.328308 0 0)
(0.126486 0 0)
(0.218243 0 0)
(0.479472 0 0)
(0.621974 0 0)
(0.702273 0 0)
(0.750231 0 0)
(0.780341 0 0)
(0.79977 0 0)
(0.812226 0 0)
(0.819688 0 0)
(0.823194 0 0)
(0.823194 0 0)
(0.819688 0 0)
(0.812227 0 0)
(0.799771 0 0)
(0.780342 0 0)
(0.750232 0 0)
(0.702275 0 0)
(0.621975 0 0)
(0.479472 0 0)
(0.218243 0 0)
(0.485265 0 0)
(0.749389 0 0)
(0.838255 0 0)
(0.875966 0 0)
(0.89536 0 0)
(0.906666 0 0)
(0.913697 0 0)
(0.918118 0 0)
(0.920739 0 0)
(0.921964 0 0)
(0.921964 0 0)
(0.920739 0 0)
(0.918118 0 0)
(0.913697 0 0)
(0.906667 0 0)
(0.895361 0 0)
(0.875967 0 0)
(0.838256 0 0)
(0.749389 0 0)
(0.485265 0 0)
)
;

boundaryField
{
    movingWall
    {
        type            fixedValue;
        value           uniform (0.971981 0 0);
    }
    fixedWalls
    {
        type            noSlip;
    }
    frontAndBack
    {
        type            empty;
    }
}


// ************************************************************************* //
