/*--------------------------------*- C++ -*----------------------------------*\
  =========                 |
  \\      /  F ield         | OpenFOAM: The Open Source CFD Toolbox
   \\    /   O peration     | Website:  https://openfoam.org
    \\  /    A nd           | Version:  9
     \\/     M anipulation  |
\*---------------------------------------------------------------------------*/
FoamFile
{
    format      ascii;
    class       volScalarField;
    location    "0.08";
    object      p;
}
// * * * * * * * * * * * * * * * * * * * * * * * * * * * * * * * * * * * * * //

dimensions      [0 2 -2 0 0 0 0];

internalField   nonuniform List<scalar> 
40
(
-0.483066
-0.453398
-0.420911
-0.386537
-0.486386
-0.457511
-0.425956
-0.393694
-0.495381
-0.469048
-0.439797
-0.409131
-0.508778
-0.486246
-0.460184
-0.432129
-0.526152
-0.508379
-0.486533
-0.462517
-0.547999
-0.535483
-0.518779
-0.500394
-0.576098
-0.568613
-0.557141
-0.545257
-0.613221
-0.609555
-0.602147
-0.596007
-0.660465
-0.660003
-0.655798
-0.652788
-0.724664
-0.723141
-0.720697
-0.717181
)
;

boundaryField
{
    movingWall
    {
        type            zeroGradient;
    }
    fixedWalls
    {
        type            zeroGradient;
    }
    frontAndBack
    {
        type            empty;
    }
    procBoundary5to2
    {
        type            processor;
        value           nonuniform List<scalar> 8(-0.509803 -0.512794 -0.519503 -0.529302 -0.542108 -0.55927 -0.582928 -0.613907);
    }
    procBoundary5to3
    {
        type            processor;
        value           nonuniform List<scalar> 2(-0.657889 -0.71407);
    }
    procBoundary5to6
    {
        type            processor;
        value           nonuniform List<scalar> 4(-0.803331 -0.802866 -0.800001 -0.794623);
    }
    procBoundary5to7
    {
        type            processor;
        value           nonuniform List<scalar> 6(-0.369754 -0.375424 -0.390745 -0.414371 -0.446183 -0.486287);
    }
    procBoundary5to8
    {
        type            processor;
        value           nonuniform List<scalar> 4(-0.527412 -0.581646 -0.641575 -0.707884);
    }
}


// ************************************************************************* //
