/*--------------------------------*- C++ -*----------------------------------*\
  =========                 |
  \\      /  F ield         | OpenFOAM: The Open Source CFD Toolbox
   \\    /   O peration     | Website:  https://openfoam.org
    \\  /    A nd           | Version:  9
     \\/     M anipulation  |
\*---------------------------------------------------------------------------*/
FoamFile
{
    format      ascii;
    class       volVectorField;
    location    "0.085";
    object      U;
}
// * * * * * * * * * * * * * * * * * * * * * * * * * * * * * * * * * * * * * //

dimensions      [0 1 -1 0 0 0 0];

internalField   nonuniform List<vector> 
40
(
(-0.0506021 0.00535817 0)
(-0.0639384 0.00497275 0)
(-0.0757695 0.00425167 0)
(-0.0850956 0.00309019 0)
(-0.0908948 0.00151385 0)
(-0.127069 0.0265655 0)
(-0.159537 0.0244637 0)
(-0.187637 0.0205159 0)
(-0.209223 0.0146263 0)
(-0.222334 0.00708298 0)
(-0.194856 0.0675958 0)
(-0.241435 0.061637 0)
(-0.281444 0.0509793 0)
(-0.311956 0.035865 0)
(-0.330321 0.0170862 0)
(-0.258049 0.122197 0)
(-0.316522 0.110857 0)
(-0.366636 0.0911682 0)
(-0.404845 0.0638476 0)
(-0.427997 0.0304469 0)
(-0.316464 0.188372 0)
(-0.385732 0.170267 0)
(-0.445182 0.139679 0)
(-0.49081 0.0978933 0)
(-0.519055 0.0472463 0)
(-0.369984 0.265523 0)
(-0.449288 0.239381 0)
(-0.517667 0.196373 0)
(-0.570846 0.138357 0)
(-0.604965 0.0684327 0)
(-0.418425 0.35268 0)
(-0.506981 0.317688 0)
(-0.583767 0.261147 0)
(-0.644569 0.185786 0)
(-0.685497 0.0951463 0)
(-0.461687 0.448704 0)
(-0.558204 0.404155 0)
(-0.642516 0.33367 0)
(-0.710565 0.240425 0)
(-0.75833 0.128633 0)
)
;

boundaryField
{
    movingWall
    {
        type            fixedValue;
        value           nonuniform List<vector> 0();
    }
    fixedWalls
    {
        type            noSlip;
    }
    frontAndBack
    {
        type            empty;
    }
    procBoundary2to0
    {
        type            processor;
        value           nonuniform List<vector> 8((-0.0367574 0.00550252 0) (-0.0927118 0.0268712 0) (-0.145333 0.0686414 0) (-0.195554 0.124604 0) (-0.242163 0.193014 0) (-0.284768 0.273199 0) (-0.323299 0.364222 0) (-0.357938 0.464453 0));
    }
    procBoundary2to3
    {
        type            processor;
        value           nonuniform List<vector> 5((-0.499431 0.552318 0) (-0.601998 0.497772 0) (-0.691806 0.413126 0) (-0.765286 0.302105 0) (-0.8191 0.169059 0));
    }
    procBoundary2to5
    {
        type            processor;
        value           nonuniform List<vector> 8((-0.0924383 -0.000235093 0) (-0.225715 -0.0013508 0) (-0.335096 -0.00374429 0) (-0.434454 -0.00653617 0) (-0.528116 -0.00880163 0) (-0.618056 -0.00913779 0) (-0.704087 -0.00574104 0) (-0.783606 0.00316762 0));
    }
}


// ************************************************************************* //
