/*--------------------------------*- C++ -*----------------------------------*\
  =========                 |
  \\      /  F ield         | OpenFOAM: The Open Source CFD Toolbox
   \\    /   O peration     | Website:  https://openfoam.org
    \\  /    A nd           | Version:  9
     \\/     M anipulation  |
\*---------------------------------------------------------------------------*/
FoamFile
{
    format      ascii;
    class       surfaceScalarField;
    location    "0.09";
    object      phi;
}
// * * * * * * * * * * * * * * * * * * * * * * * * * * * * * * * * * * * * * //

dimensions      [0 3 -1 0 0 0 0];

internalField   nonuniform List<scalar> 
63
(
-1.66316e-06
8.20107e-06
-5.62318e-06
2.01263e-05
-1.09015e-05
2.7673e-05
-1.67371e-05
3.15614e-05
3.25937e-05
-1.83646e-06
1.00375e-05
-6.13827e-06
2.44281e-05
-1.17813e-05
3.3316e-05
-1.79298e-05
-2.0331e-06
1.20706e-05
-6.68191e-06
2.90769e-05
3.92582e-05
-2.28318e-06
1.43538e-05
-7.30419e-06
3.40979e-05
4.54109e-05
-2.65122e-06
1.7005e-05
-8.11101e-06
3.95577e-05
5.16442e-05
-3.26068e-06
2.02657e-05
-9.27716e-06
4.55742e-05
5.77375e-05
-4.34341e-06
2.46091e-05
-1.10395e-05
5.22703e-05
6.32223e-05
-6.24918e-06
3.08583e-05
-1.35335e-05
5.95546e-05
6.69953e-05
-9.30225e-06
4.01606e-05
-1.60195e-05
6.62719e-05
6.6536e-05
-1.28506e-05
5.30112e-05
-1.41283e-05
6.75496e-05
5.67264e-05
-8.59444e-06
6.16056e-05
9.60285e-06
4.93523e-05
3.09145e-05
6.16056e-05
0.000110958
)
;

boundaryField
{
    movingWall
    {
        type            calculated;
        value           uniform 0;
    }
    fixedWalls
    {
        type            calculated;
        value           uniform 0;
    }
    frontAndBack
    {
        type            empty;
        value           nonuniform List<scalar> 0();
    }
    procBoundary1to0
    {
        type            processor;
        value           nonuniform List<scalar> 5(-6.53791e-06 -1.61663e-05 -2.23947e-05 -2.57258e-05 -2.67113e-05);
    }
    procBoundary1to3
    {
        type            processor;
        value           nonuniform List<scalar> 8(-2.26195e-05 3.77099e-05 -2.4046e-05 3.871e-05 -1.26241e-05 -1.34569e-05 -1.43444e-05 -1.53704e-05);
    }
    procBoundary1to4
    {
        type            processor;
        value           nonuniform List<scalar> 6(-1.65243e-05 -1.73065e-05 -1.55602e-05 -4.31868e-06 3.54148e-05 0.000141872);
    }
}


// ************************************************************************* //
