/*--------------------------------*- C++ -*----------------------------------*\
  =========                 |
  \\      /  F ield         | OpenFOAM: The Open Source CFD Toolbox
   \\    /   O peration     | Website:  https://openfoam.org
    \\  /    A nd           | Version:  9
     \\/     M anipulation  |
\*---------------------------------------------------------------------------*/
FoamFile
{
    format      ascii;
    class       volVectorField;
    location    "0.09";
    object      U;
}
// * * * * * * * * * * * * * * * * * * * * * * * * * * * * * * * * * * * * * //

dimensions      [0 1 -1 0 0 0 0];

internalField   nonuniform List<vector> 
40
(
(-0.0115073 0.147588 0)
(-0.0644076 0.363896 0)
(-0.160999 0.502557 0)
(-0.276777 0.57545 0)
(-0.396866 0.595978 0)
(-0.0129488 0.182805 0)
(-0.070859 0.447088 0)
(-0.174994 0.612751 0)
(-0.297783 0.696546 0)
(-0.423444 0.71762 0)
(-0.0147126 0.221628 0)
(-0.0780857 0.53714 0)
(-0.189257 0.729654 0)
(-0.017162 0.264782 0)
(-0.0870159 0.634288 0)
(-0.204776 0.851785 0)
(-0.0211347 0.313892 0)
(-0.0996923 0.739392 0)
(-0.223597 0.977097 0)
(-0.0282665 0.372364 0)
(-0.119691 0.854347 0)
(-0.248863 1.10226 0)
(-0.0416173 0.447207 0)
(-0.153067 0.982126 0)
(-0.283516 1.22154 0)
(-0.0661463 0.551892 0)
(-0.206789 1.1249 0)
(-0.324904 1.32198 0)
(-0.106621 0.712681 0)
(-0.280456 1.27605 0)
(-0.343579 1.3704 0)
(-0.150665 0.971455 0)
(-0.326012 1.39095 0)
(-0.220149 1.28583 0)
(-0.044223 1.24876 0)
(-0.0583875 1.30192 0)
(0.425585 0.954035 0)
(1.40487 0.692569 0)
(1.80118 0.6153 0)
(2.51942 0.389937 0)
)
;

boundaryField
{
    movingWall
    {
        type            fixedValue;
        value           uniform (4.94934 0 0);
    }
    fixedWalls
    {
        type            noSlip;
    }
    frontAndBack
    {
        type            empty;
    }
    procBoundary1to0
    {
        type            processor;
        value           nonuniform List<vector> 5((-0.0101858 0.11513 0) (-0.0577578 0.285691 0) (-0.145641 0.397351 0) (-0.251936 0.458228 0) (-0.363339 0.477194 0));
    }
    procBoundary1to3
    {
        type            processor;
        value           nonuniform List<vector> 8((-0.51044 0.570047 0) (-0.315195 0.817059 0) (-0.540911 0.684254 0) (-0.441705 0.836077 0) (-0.315195 0.817059 0) (-0.332564 0.943957 0) (-0.348573 1.06687 0) (-0.363353 1.17814 0));
    }
    procBoundary1to4
    {
        type            processor;
        value           nonuniform List<vector> 6((-0.373319 1.26531 0) (-0.361937 1.30749 0) (-0.274044 1.26627 0) (0.0446633 1.0736 0) (0.955418 0.68528 0) (3.06124 0.243319 0));
    }
}


// ************************************************************************* //
