/*--------------------------------*- C++ -*----------------------------------*\
  =========                 |
  \\      /  F ield         | OpenFOAM: The Open Source CFD Toolbox
   \\    /   O peration     | Website:  https://openfoam.org
    \\  /    A nd           | Version:  9
     \\/     M anipulation  |
\*---------------------------------------------------------------------------*/
FoamFile
{
    format      ascii;
    class       volScalarField;
    location    "0.03";
    object      p;
}
// * * * * * * * * * * * * * * * * * * * * * * * * * * * * * * * * * * * * * //

dimensions      [0 2 -2 0 0 0 0];

internalField   nonuniform List<scalar> 
40
(
-0.0479061
-0.0973447
-0.126267
-0.143513
-0.153352
-0.0942865
-0.115194
-0.133329
-0.145731
-0.152257
-0.1172
-0.126952
-0.136629
-0.143894
-0.147647
-0.125916
-0.13026
-0.134297
-0.137277
-0.138113
-0.125059
-0.126287
-0.1265
-0.126007
-0.123968
-0.118072
-0.117276
-0.114965
-0.112003
-0.107989
-0.107702
-0.105796
-0.102424
-0.0985188
-0.0948839
-0.0961788
-0.093241
-0.0888321
-0.0858675
-0.0867033
)
;

boundaryField
{
    movingWall
    {
        type            zeroGradient;
    }
    fixedWalls
    {
        type            zeroGradient;
    }
    frontAndBack
    {
        type            empty;
    }
    procBoundary0to1
    {
        type            processor;
        value           nonuniform List<scalar> 5(-0.0863081 -0.0841652 -0.0790534 -0.0768598 -0.0749158);
    }
    procBoundary0to2
    {
        type            processor;
        value           nonuniform List<scalar> 8(-0.144682 -0.143988 -0.139333 -0.130171 -0.116778 -0.101537 -0.0885156 -0.078582);
    }
}


// ************************************************************************* //
