/*--------------------------------*- C++ -*----------------------------------*\
  =========                 |
  \\      /  F ield         | OpenFOAM: The Open Source CFD Toolbox
   \\    /   O peration     | Website:  https://openfoam.org
    \\  /    A nd           | Version:  9
     \\/     M anipulation  |
\*---------------------------------------------------------------------------*/
FoamFile
{
    format      ascii;
    class       surfaceScalarField;
    location    "0.07";
    object      phi;
}
// * * * * * * * * * * * * * * * * * * * * * * * * * * * * * * * * * * * * * //

dimensions      [0 3 -1 0 0 0 0];

internalField   nonuniform List<scalar> 
67
(
-1.69192e-06
-6.15049e-07
-1.05575e-06
-6.36175e-07
-4.93525e-07
-5.6222e-07
-1.00471e-07
-3.93054e-07
5.66994e-08
-1.5717e-07
5.66993e-08
-5.04466e-06
-2.15568e-06
-3.43774e-06
-2.24309e-06
-1.96497e-06
-2.03499e-06
-8.23359e-07
-1.53467e-06
-1.56907e-07
-8.23622e-07
-1.00208e-07
-8.21131e-06
-4.45512e-06
-5.77979e-06
-4.67461e-06
-3.48891e-06
-4.32586e-06
-1.6188e-06
-3.40478e-06
-4.07131e-07
-2.03529e-06
-5.07339e-07
-1.11346e-05
-7.40157e-06
-7.96664e-06
-7.84259e-06
-4.91655e-06
-7.37595e-06
-2.34997e-06
-5.97137e-06
-6.19982e-07
-3.76527e-06
-1.12732e-06
-1.40199e-05
-1.09385e-05
-1.01454e-05
-1.17171e-05
-6.33529e-06
-1.1186e-05
-3.06266e-06
-9.244e-06
-8.15627e-07
-6.01231e-06
-1.94295e-06
-1.70805e-05
-1.24881e-05
-7.87793e-06
-1.57962e-05
-3.84038e-06
-1.32815e-05
-1.02696e-06
-8.82572e-06
-2.96991e-06
-9.67921e-06
-4.76719e-06
-1.2859e-06
)
;

boundaryField
{
    movingWall
    {
        type            calculated;
        value           nonuniform List<scalar> 0();
    }
    fixedWalls
    {
        type            calculated;
        value           uniform 0;
    }
    frontAndBack
    {
        type            empty;
        value           nonuniform List<scalar> 0();
    }
    procBoundary7to5
    {
        type            processor;
        value           nonuniform List<scalar> 6(2.30697e-06 6.58528e-06 1.05108e-05 1.40811e-05 1.75568e-05 2.11736e-05);
    }
    procBoundary7to8
    {
        type            processor;
        value           nonuniform List<scalar> 7(-1.50316e-05 -1.63096e-05 1.51603e-05 -2.12773e-05 -1.81936e-05 -1.2307e-05 -4.25581e-06);
    }
}


// ************************************************************************* //
