/*--------------------------------*- C++ -*----------------------------------*\
  =========                 |
  \\      /  F ield         | OpenFOAM: The Open Source CFD Toolbox
   \\    /   O peration     | Website:  https://openfoam.org
    \\  /    A nd           | Version:  8
     \\/     M anipulation  |
\*---------------------------------------------------------------------------*/
FoamFile
{
    version     2.0;
    format      ascii;
    class       volScalarField;
    location    "1";
    object      p;
}
// * * * * * * * * * * * * * * * * * * * * * * * * * * * * * * * * * * * * * //

dimensions      [0 2 -2 0 0 0 0];

internalField   nonuniform List<scalar> 
400
(
-0.0991855
-0.198179
-0.251329
-0.276709
-0.280344
-0.26813
-0.24319
-0.206112
-0.159541
-0.106467
-0.0491252
0.0103013
0.0690462
0.123967
0.17219
0.211667
0.241405
0.261389
0.272399
0.276061
-0.198567
-0.239044
-0.268574
-0.283726
-0.282712
-0.267858
-0.241516
-0.204379
-0.158632
-0.106633
-0.0502002
0.00864408
0.0671188
0.121949
0.170068
0.209254
0.238439
0.257548
0.266946
0.266593
-0.250268
-0.268478
-0.280284
-0.284688
-0.27736
-0.260011
-0.233941
-0.198844
-0.156266
-0.107986
-0.055152
0.00077521
0.0572106
0.110651
0.157549
0.195257
0.222591
0.239696
0.247137
0.245384
-0.273278
-0.280778
-0.280783
-0.276589
-0.263964
-0.244836
-0.220088
-0.188591
-0.151262
-0.109264
-0.0628356
-0.0124956
0.0396676
0.0900175
0.134454
0.169767
0.194523
0.208989
0.214075
0.210821
-0.278107
-0.279139
-0.271692
-0.261099
-0.24414
-0.22359
-0.200505
-0.173184
-0.14206
-0.107978
-0.0703825
-0.0286203
0.0161405
0.0605166
0.100129
0.131379
0.152602
0.163974
0.166707
0.162235
-0.270422
-0.267716
-0.255807
-0.241126
-0.221189
-0.199812
-0.178711
-0.155821
-0.13107
-0.105502
-0.0783658
-0.0478845
-0.0138188
0.0213929
0.0536687
0.0793166
0.0963937
0.10469
0.105659
0.100913
-0.25585
-0.251914
-0.238344
-0.222299
-0.201329
-0.180039
-0.161247
-0.142834
-0.123738
-0.105658
-0.0887826
-0.0708761
-0.0500242
-0.0268426
-0.00417869
0.0147427
0.0277072
0.0336995
0.0341163
0.030396
-0.239721
-0.236879
-0.224586
-0.210374
-0.191065
-0.171341
-0.155391
-0.142001
-0.127948
-0.115269
-0.106425
-0.100133
-0.0931163
-0.0834278
-0.0715741
-0.059524
-0.0496641
-0.0443304
-0.0428647
-0.0446163
-0.224465
-0.224978
-0.216971
-0.208294
-0.194523
-0.179182
-0.167232
-0.160788
-0.153011
-0.144389
-0.140254
-0.142187
-0.146795
-0.149499
-0.147601
-0.140969
-0.131938
-0.12473
-0.120552
-0.12054
-0.208309
-0.213869
-0.21283
-0.213507
-0.210397
-0.204614
-0.198739
-0.202541
-0.205425
-0.202829
-0.20156
-0.207468
-0.219061
-0.230188
-0.234882
-0.230325
-0.218463
-0.205881
-0.197171
-0.196752
-0.185118
-0.196262
-0.204721
-0.218488
-0.231806
-0.244177
-0.248147
-0.26551
-0.285381
-0.295044
-0.298972
-0.306694
-0.320379
-0.334326
-0.340412
-0.333176
-0.313719
-0.291041
-0.274706
-0.274498
-0.145723
-0.162308
-0.184395
-0.216207
-0.251023
-0.29313
-0.314474
-0.347659
-0.388597
-0.417623
-0.432777
-0.444095
-0.45734
-0.46921
-0.471563
-0.457138
-0.425355
-0.38656
-0.356041
-0.352011
-0.0812912
-0.104329
-0.148108
-0.207397
-0.266909
-0.347422
-0.398232
-0.450672
-0.511914
-0.562588
-0.594031
-0.612636
-0.625195
-0.631686
-0.626756
-0.603124
-0.556697
-0.495612
-0.439026
-0.41865
0.0129509
-0.020973
-0.0965723
-0.197988
-0.286044
-0.398648
-0.487342
-0.567389
-0.649542
-0.721311
-0.771663
-0.799394
-0.807372
-0.801354
-0.784286
-0.751875
-0.693475
-0.607692
-0.510131
-0.452778
0.138397
0.083547
-0.0259896
-0.175011
-0.303503
-0.426
-0.541665
-0.658141
-0.774396
-0.877948
-0.957453
-0.999856
-0.9837
-0.941456
-0.896629
-0.852265
-0.788359
-0.684899
-0.539661
-0.425752
0.302218
0.209167
0.0778938
-0.0843149
-0.265939
-0.397425
-0.527703
-0.689894
-0.8754
-1.05218
-1.18712
-1.24033
-1.18293
-1.0517
-0.917928
-0.826434
-0.753722
-0.651912
-0.480413
-0.310059
0.525084
0.382613
0.239158
0.116625
-0.0927067
-0.29229
-0.515508
-0.78294
-1.07174
-1.33368
-1.51626
-1.57695
-1.49658
-1.26391
-0.954898
-0.668961
-0.483271
-0.39024
-0.265402
-0.088901
0.837261
0.690042
0.543414
0.366701
0.0751682
-0.26997
-0.665345
-1.06754
-1.41614
-1.67883
-1.84482
-1.90864
-1.85975
-1.66501
-1.2742
-0.695471
-0.13219
0.20005
0.247502
0.314897
1.45434
1.2553
0.951567
0.481873
-0.106564
-0.645523
-1.08643
-1.44584
-1.73077
-1.94191
-2.0811
-2.14818
-2.13367
-2.0093
-1.71988
-1.17927
-0.310904
0.604464
1.10257
1.19918
2.09966
1.6228
0.830114
-0.00157243
-0.585016
-1.00276
-1.34181
-1.62768
-1.86064
-2.03852
-2.16118
-2.22734
-2.22849
-2.14422
-1.94149
-1.57526
-0.944619
0.126323
1.46147
2.18923
)
;

boundaryField
{
    movingWall
    {
        type            zeroGradient;
    }
    fixedWalls
    {
        type            zeroGradient;
    }
    frontAndBack
    {
        type            empty;
    }
}


// ************************************************************************* //
