/*--------------------------------*- C++ -*----------------------------------*\
  =========                 |
  \\      /  F ield         | OpenFOAM: The Open Source CFD Toolbox
   \\    /   O peration     | Website:  https://openfoam.org
    \\  /    A nd           | Version:  8
     \\/     M anipulation  |
\*---------------------------------------------------------------------------*/
FoamFile
{
    version     2.0;
    format      ascii;
    class       surfaceScalarField;
    location    "1";
    object      phi;
}
// * * * * * * * * * * * * * * * * * * * * * * * * * * * * * * * * * * * * * //

dimensions      [0 3 -1 0 0 0 0];

internalField   nonuniform List<scalar> 
760
(
6.40878e-08
-6.40594e-08
-1.33839e-07
1.97927e-07
-6.01331e-07
4.67496e-07
-1.24965e-06
6.48313e-07
-1.98602e-06
7.36376e-07
-2.72942e-06
7.43393e-07
-3.41093e-06
6.81514e-07
-3.97119e-06
5.60261e-07
-4.35852e-06
3.87329e-07
-4.53016e-06
1.71642e-07
-4.45689e-06
-7.32691e-08
-4.13001e-06
-3.26882e-07
-3.56866e-06
-5.61352e-07
-2.825e-06
-7.43654e-07
-1.98448e-06
-8.40521e-07
-1.15881e-06
-8.25672e-07
-4.70569e-07
-6.88245e-07
-2.98264e-08
-4.40743e-07
1.0219e-07
-1.32014e-07
1.02193e-07
-1.96204e-07
1.32136e-07
-9.65981e-07
9.67712e-07
-2.25647e-06
1.75799e-06
-3.9056e-06
2.29745e-06
-5.72735e-06
2.55813e-06
-7.54301e-06
2.55905e-06
-9.19111e-06
2.32962e-06
-1.05295e-05
1.89868e-06
-1.14371e-05
1.29486e-06
-1.18187e-05
5.53326e-07
-1.16158e-05
-2.76201e-07
-1.08186e-05
-1.12413e-06
-9.47897e-06
-1.90094e-06
-7.71816e-06
-2.50446e-06
-5.72395e-06
-2.83473e-06
-3.73405e-06
-2.81558e-06
-2.00241e-06
-2.41988e-06
-7.50091e-07
-1.69307e-06
-1.03259e-07
-7.78854e-07
-1.06335e-09
-5.06061e-07
6.38202e-07
-1.89211e-06
2.35376e-06
-3.96672e-06
3.8326e-06
-6.48949e-06
4.82021e-06
-9.20765e-06
5.27629e-06
-1.18791e-05
5.2305e-06
-1.42825e-05
4.73301e-06
-1.62216e-05
3.83776e-06
-1.75296e-05
2.60291e-06
-1.80778e-05
1.10147e-06
-1.77878e-05
-5.66139e-07
-1.66482e-05
-2.2638e-06
-1.47288e-05
-3.82032e-06
-1.21907e-05
-5.04253e-06
-9.28359e-06
-5.74187e-06
-6.32554e-06
-5.77362e-06
-3.66234e-06
-5.08308e-06
-1.60735e-06
-3.74807e-06
-3.71296e-07
-2.01491e-06
-3.72357e-07
-7.89334e-07
1.42754e-06
-2.76812e-06
4.33255e-06
-5.58689e-06
6.65137e-06
-8.91149e-06
8.14481e-06
-1.24266e-05
8.79138e-06
-1.58424e-05
8.64629e-06
-1.88975e-05
7.78812e-06
-2.13606e-05
6.30084e-06
-2.30343e-05
4.27668e-06
-2.37643e-05
1.83147e-06
-2.34529e-05
-8.7753e-07
-2.20771e-05
-3.6396e-06
-1.97069e-05
-6.19055e-06
-1.65192e-05
-8.23021e-06
-1.28009e-05
-9.46016e-06
-8.9328e-06
-9.64176e-06
-5.3484e-06
-8.66748e-06
-2.46896e-06
-6.62751e-06
-6.26141e-07
-3.85773e-06
-9.98498e-07
-1.04169e-06
2.46923e-06
-3.56942e-06
6.86028e-06
-7.08221e-06
1.01642e-05
-1.11491e-05
1.22117e-05
-1.53947e-05
1.3037e-05
-1.94908e-05
1.27424e-05
-2.31488e-05
1.1446e-05
-2.61146e-05
9.26672e-06
-2.81697e-05
6.3317e-06
-2.91366e-05
2.79845e-06
-2.88934e-05
-1.12075e-06
-2.73922e-05
-5.1408e-06
-2.46828e-05
-8.89997e-06
-2.09351e-05
-1.1978e-05
-1.64535e-05
-1.39417e-05
-1.16731e-05
-1.44223e-05
-7.12388e-06
-1.32167e-05
-3.36229e-06
-1.03891e-05
-8.76964e-07
-6.34305e-06
-1.87546e-06
-1.26664e-06
3.73587e-06
-4.29374e-06
9.88737e-06
-8.44297e-06
1.43134e-05
-1.31917e-05
1.69604e-05
-1.81098e-05
1.79551e-05
-2.28387e-05
1.74713e-05
-2.70729e-05
1.56803e-05
-3.05461e-05
1.27398e-05
-3.30245e-05
8.81013e-06
-3.43094e-05
4.08332e-06
-3.42474e-05
-1.18268e-06
-3.27513e-05
-6.63697e-06
-2.98282e-05
-1.1823e-05
-2.56153e-05
-1.61909e-05
-2.04118e-05
-1.91452e-05
-1.46955e-05
-2.01386e-05
-9.10298e-06
-1.88092e-05
-4.35809e-06
-1.5134e-05
-1.15168e-06
-9.54946e-06
-3.02714e-06
-1.46649e-06
5.20237e-06
-4.94034e-06
1.33612e-05
-9.66004e-06
1.90331e-05
-1.50197e-05
2.23201e-05
-2.05423e-05
2.34777e-05
-2.58488e-05
2.27778e-05
-3.06276e-05
2.0459e-05
-3.46103e-05
1.67225e-05
-3.75566e-05
1.17564e-05
-3.92489e-05
5.77563e-06
-3.94985e-05
-9.33031e-07
-3.8165e-05
-7.97052e-06
-3.51901e-05
-1.47979e-05
-3.06469e-05
-2.07341e-05
-2.47965e-05
-2.49955e-05
-1.81364e-05
-2.67987e-05
-1.14092e-05
-2.55363e-05
-5.54001e-06
-2.10032e-05
-1.48264e-06
-1.36068e-05
-4.50978e-06
-1.64192e-06
6.84429e-06
-5.50625e-06
1.72256e-05
-1.07189e-05
2.42458e-05
-1.65989e-05
2.82e-05
-2.26318e-05
2.95107e-05
-2.84299e-05
2.85759e-05
-3.36889e-05
2.5718e-05
-3.81522e-05
2.11859e-05
-4.1585e-05
1.51892e-05
-4.37593e-05
7.94999e-06
-4.44529e-05
-2.39449e-07
-4.3464e-05
-8.95945e-06
-4.06478e-05
-1.76141e-05
-3.59779e-05
-2.54039e-05
-2.9631e-05
-3.13424e-05
-2.20788e-05
-3.43509e-05
-1.41486e-05
-3.34665e-05
-6.99162e-06
-2.81602e-05
-1.90386e-06
-1.86946e-05
-6.41363e-06
-1.79371e-06
8.63801e-06
-5.98945e-06
2.14213e-05
-1.16035e-05
2.98598e-05
-1.78846e-05
3.44811e-05
-2.42914e-05
3.59175e-05
-3.04417e-05
3.47262e-05
-3.6056e-05
3.13324e-05
-4.09083e-05
2.60381e-05
-4.47874e-05
1.90683e-05
-4.74718e-05
1.06343e-05
-4.87171e-05
1.00588e-06
-4.8263e-05
-9.41356e-06
-4.58646e-05
-2.00124e-05
-4.13607e-05
-2.99078e-05
-3.4784e-05
-3.79191e-05
-2.65071e-05
-4.26278e-05
-1.73824e-05
-4.25912e-05
-8.78728e-06
-3.67553e-05
-2.45097e-06
-2.50309e-05
-8.8646e-06
-1.92713e-06
1.05651e-05
-6.39827e-06
2.58924e-05
-1.23085e-05
3.577e-05
-1.88351e-05
4.10077e-05
-2.5421e-05
4.25033e-05
-3.17084e-05
4.10137e-05
-3.7465e-05
3.70889e-05
-4.2519e-05
3.10921e-05
-4.67089e-05
2.32582e-05
-4.98455e-05
1.3771e-05
-5.16877e-05
2.84808e-06
-5.19343e-05
-9.16699e-06
-5.02427e-05
-2.1704e-05
-4.62911e-05
-3.38595e-05
-3.9903e-05
-4.43072e-05
-3.12484e-05
-5.12824e-05
-2.10919e-05
-5.27477e-05
-1.09817e-05
-4.68656e-05
-3.16267e-06
-3.28499e-05
-1.20273e-05
-2.05918e-06
1.26243e-05
-6.76657e-06
3.05998e-05
-1.28581e-05
4.18615e-05
-1.94306e-05
4.75802e-05
-2.59263e-05
4.89991e-05
-3.2038e-05
4.71253e-05
-3.7609e-05
4.26599e-05
-4.25519e-05
3.60351e-05
-4.67864e-05
2.74927e-05
-5.01911e-05
1.71757e-05
-5.2566e-05
5.22296e-06
-5.36066e-05
-8.12635e-06
-5.28993e-05
-2.24113e-05
-4.99588e-05
-3.68e-05
-4.43454e-05
-4.99206e-05
-3.59022e-05
-5.97256e-05
-2.5128e-05
-6.35219e-05
-1.35923e-05
-5.84013e-05
-4.08285e-06
-4.23594e-05
-1.61101e-05
-2.23016e-06
1.48545e-05
-7.17476e-06
3.55444e-05
-1.33274e-05
4.80142e-05
-1.96906e-05
5.39434e-05
-2.5733e-05
5.50415e-05
-3.12366e-05
5.26289e-05
-3.61584e-05
4.75817e-05
-4.05302e-05
4.04068e-05
-4.43876e-05
3.13502e-05
-4.77166e-05
2.05046e-05
-5.04061e-05
7.91245e-06
-5.22043e-05
-6.32818e-06
-5.26824e-05
-2.19332e-05
-5.12289e-05
-3.82536e-05
-4.71215e-05
-5.4028e-05
-3.97595e-05
-6.70876e-05
-2.914e-05
-7.41414e-05
-1.65679e-05
-7.09734e-05
-5.26251e-06
-5.36648e-05
-2.13726e-05
-2.52236e-06
1.73768e-05
-7.77534e-06
4.07974e-05
-1.38583e-05
5.40972e-05
-1.96741e-05
5.97592e-05
-2.47752e-05
6.01426e-05
-2.90954e-05
5.6949e-05
-3.2755e-05
5.12413e-05
-3.59428e-05
4.35946e-05
-3.88427e-05
3.42501e-05
-4.15832e-05
2.32452e-05
-4.41899e-05
1.05191e-05
-4.65292e-05
-3.98889e-06
-4.82413e-05
-2.0221e-05
-4.86744e-05
-3.78205e-05
-4.68722e-05
-5.58302e-05
-4.17267e-05
-7.22331e-05
-3.24797e-05
-8.33885e-05
-1.97302e-05
-8.37228e-05
-6.75804e-06
-6.6637e-05
-2.81307e-05
-3.08999e-06
2.04668e-05
-8.8154e-06
4.65228e-05
-1.46419e-05
5.99237e-05
-1.94216e-05
6.45388e-05
-2.29121e-05
6.36331e-05
-2.52994e-05
5.93364e-05
-2.69313e-05
5.28732e-05
-2.81886e-05
4.48519e-05
-2.94242e-05
3.54857e-05
-3.09283e-05
2.47492e-05
-3.28939e-05
1.24848e-05
-3.53634e-05
-1.5194e-06
-3.81417e-05
-1.74427e-05
-4.06707e-05
-3.52915e-05
-4.18998e-05
-5.46011e-05
-4.02692e-05
-7.38636e-05
-3.40813e-05
-8.95764e-05
-2.26706e-05
-9.51335e-05
-8.61371e-06
-8.06938e-05
-3.67444e-05
-4.20024e-06
2.46671e-05
-1.0621e-05
5.29436e-05
-1.57954e-05
6.50982e-05
-1.87433e-05
6.74867e-05
-1.96709e-05
6.45608e-05
-1.91646e-05
5.88301e-05
-1.78689e-05
5.15775e-05
-1.63766e-05
4.33597e-05
-1.52035e-05
3.43125e-05
-1.47875e-05
2.43332e-05
-1.54847e-05
1.3182e-05
-1.75367e-05
5.32626e-07
-2.09889e-05
-1.39905e-05
-2.55318e-05
-3.07486e-05
-3.02547e-05
-4.98783e-05
-3.3383e-05
-7.07353e-05
-3.23033e-05
-9.06561e-05
-2.45545e-05
-0.000102882
-1.07875e-05
-9.44609e-05
-4.75318e-05
-6.24655e-06
3.09136e-05
-1.34049e-05
6.01019e-05
-1.69236e-05
6.86168e-05
-1.66373e-05
6.72004e-05
-1.36273e-05
6.15507e-05
-9.0512e-06
5.4254e-05
-3.88366e-06
4.64099e-05
1.10196e-06
3.83741e-05
5.2862e-06
3.01283e-05
8.14725e-06
2.14722e-05
9.22443e-06
1.21048e-05
8.11198e-06
1.64508e-06
4.50823e-06
-1.03868e-05
-1.64583e-06
-2.45945e-05
-9.86096e-06
-4.16631e-05
-1.85926e-05
-6.20036e-05
-2.47106e-05
-8.45381e-05
-2.37491e-05
-0.000103844
-1.29139e-05
-0.000105296
-6.04457e-05
-9.56116e-06
4.04748e-05
-1.64262e-05
6.6967e-05
-1.5821e-05
6.80116e-05
-9.88909e-06
6.12685e-05
-1.12551e-06
5.27871e-05
8.70423e-06
4.44243e-05
1.84201e-05
3.66941e-05
2.7225e-05
2.95691e-05
3.45422e-05
2.28111e-05
3.98968e-05
1.61176e-05
4.28387e-05
9.16292e-06
4.28997e-05
1.58404e-06
3.9592e-05
-7.07897e-06
3.24709e-05
-1.74735e-05
2.13802e-05
-3.05724e-05
7.05365e-06
-4.76771e-05
-7.76909e-06
-6.97153e-05
-1.7213e-05
-9.43999e-05
-1.37629e-05
-0.000108746
-7.42086e-05
-1.34304e-05
5.39051e-05
-1.50805e-05
6.86171e-05
-5.09688e-06
5.8028e-05
9.81194e-06
4.63597e-05
2.58431e-05
3.6756e-05
4.12125e-05
2.90548e-05
5.50402e-05
2.28664e-05
6.68621e-05
1.77472e-05
7.63898e-05
1.32834e-05
8.3372e-05
9.13543e-06
8.75142e-05
5.02069e-06
8.84244e-05
6.73843e-07
8.55771e-05
-4.2317e-06
7.82663e-05
-1.01626e-05
6.5663e-05
-1.79692e-05
4.71876e-05
-2.92017e-05
2.37938e-05
-4.63216e-05
7.10715e-07
-7.13168e-05
-1.02174e-05
-9.78182e-05
-8.4426e-05
-9.40901e-06
6.33142e-05
8.82291e-06
5.03852e-05
3.51829e-05
3.16681e-05
6.00387e-05
2.15039e-05
8.14866e-05
1.53081e-05
9.94558e-05
1.10856e-05
0.000114205
8.11716e-06
0.000126018
5.93425e-06
0.000135099
4.20214e-06
0.000141533
2.70144e-06
0.000145269
1.28479e-06
0.0001461
-1.57198e-07
0.000143635
-1.76688e-06
0.000137173
-3.70041e-06
0.000125542
-6.3383e-06
0.000106893
-1.05525e-05
7.90759e-05
-1.85044e-05
4.22922e-05
-3.45331e-05
6.89741e-06
-6.24234e-05
-7.75286e-05
6.33142e-05
0.000113699
0.000145367
0.000166871
0.000182179
0.000193265
0.000201382
0.000207316
0.000211519
0.00021422
0.000215505
0.000215348
0.000213581
0.00020988
0.000203542
0.00019299
0.000174485
0.000139952
7.75286e-05
)
;

boundaryField
{
    movingWall
    {
        type            calculated;
        value           uniform 0;
    }
    fixedWalls
    {
        type            calculated;
        value           uniform 0;
    }
    frontAndBack
    {
        type            empty;
        value           nonuniform List<scalar> 0();
    }
}


// ************************************************************************* //
