/*--------------------------------*- C++ -*----------------------------------*\
  =========                 |
  \\      /  F ield         | OpenFOAM: The Open Source CFD Toolbox
   \\    /   O peration     | Website:  https://openfoam.org
    \\  /    A nd           | Version:  8
     \\/     M anipulation  |
\*---------------------------------------------------------------------------*/
FoamFile
{
    version     2.0;
    format      ascii;
    class       volVectorField;
    location    "1";
    object      U;
}
// * * * * * * * * * * * * * * * * * * * * * * * * * * * * * * * * * * * * * //

dimensions      [0 1 -1 0 0 0 0];

internalField   nonuniform List<vector> 
400
(
(0.0012049 -0.00120681 0)
(0.000403083 0.000673642 0)
(-0.0064501 0.00286769 0)
(-0.0179673 0.00434058 0)
(-0.0321731 0.00506928 0)
(-0.0472953 0.00518546 0)
(-0.0618289 0.00480598 0)
(-0.0744921 0.00400739 0)
(-0.084171 0.00283741 0)
(-0.0899083 0.00134561 0)
(-0.0909615 -0.000383525 0)
(-0.0869251 -0.00220708 0)
(-0.0778821 -0.0039164 0)
(-0.0645385 -0.00525276 0)
(-0.0482873 -0.00594602 0)
(-0.0311486 -0.0057733 0)
(-0.0155463 -0.00462878 0)
(-0.00390944 -0.00259438 0)
(0.00189178 -8.67216e-05 0)
(0.00157713 0.00152438 0)
(-0.000622497 -0.000510647 0)
(-0.00896212 0.00884043 0)
(-0.030054 0.0184031 0)
(-0.0603818 0.0249847 0)
(-0.0959761 0.0282379 0)
(-0.133163 0.0284684 0)
(-0.16853 0.0260729 0)
(-0.199025 0.0213973 0)
(-0.221996 0.0147502 0)
(-0.235246 0.0064992 0)
(-0.237185 -0.00281648 0)
(-0.227073 -0.012409 0)
(-0.20529 -0.0212343 0)
(-0.173557 -0.028076 0)
(-0.135009 -0.0317269 0)
(-0.0940154 -0.031253 0)
(-0.0556672 -0.0263042 0)
(-0.0249198 -0.0174122 0)
(-0.00569987 -0.00641506 0)
(0.000312474 0.00208277 0)
(-0.003075 0.00649781 0)
(-0.0201039 0.0303307 0)
(-0.0555751 0.0520738 0)
(-0.102985 0.0668989 0)
(-0.156651 0.073993 0)
(-0.211688 0.0737841 0)
(-0.26347 0.0670315 0)
(-0.307787 0.0545297 0)
(-0.340977 0.037109 0)
(-0.360034 0.0158035 0)
(-0.362822 -0.00794498 0)
(-0.348372 -0.0321525 0)
(-0.317214 -0.0543027 0)
(-0.271643 -0.0715477 0)
(-0.215817 -0.0811182 0)
(-0.155558 -0.0809166 0)
(-0.0977043 -0.0702111 0)
(-0.0490428 -0.050277 0)
(-0.0155788 -0.0250305 0)
(-0.0016717 -0.00260528 0)
(-0.00527163 0.0195495 0)
(-0.0305669 0.0642325 0)
(-0.079872 0.101421 0)
(-0.143245 0.125947 0)
(-0.2132 0.137012 0)
(-0.28388 0.135366 0)
(-0.349824 0.122246 0)
(-0.406072 0.0990036 0)
(-0.448303 0.0671264 0)
(-0.472946 0.0284907 0)
(-0.477409 -0.0143409 0)
(-0.460403 -0.0579233 0)
(-0.422328 -0.0979476 0)
(-0.365613 -0.129556 0)
(-0.294927 -0.147994 0)
(-0.217082 -0.149576 0)
(-0.140408 -0.132839 0)
(-0.0736154 -0.0995986 0)
(-0.0253384 -0.0557524 0)
(-0.00346081 -0.0125724 0)
(-0.00717259 0.0379666 0)
(-0.0400192 0.109527 0)
(-0.102241 0.165028 0)
(-0.180472 0.200192 0)
(-0.265421 0.214961 0)
(-0.350379 0.210793 0)
(-0.429287 0.189592 0)
(-0.496706 0.153363 0)
(-0.547887 0.1043 0)
(-0.578824 0.045156 0)
(-0.586452 -0.0203516 0)
(-0.568977 -0.0872477 0)
(-0.526316 -0.149286 0)
(-0.46058 -0.199323 0)
(-0.376489 -0.230179 0)
(-0.281529 -0.235984 0)
(-0.185501 -0.213881 0)
(-0.0994073 -0.165639 0)
(-0.0352307 -0.0987618 0)
(-0.00510985 -0.0275227 0)
(-0.00883566 0.0611559 0)
(-0.0484943 0.165311 0)
(-0.122539 0.241942 0)
(-0.214417 0.288658 0)
(-0.313139 0.306889 0)
(-0.411268 0.299273 0)
(-0.502345 0.268634 0)
(-0.580668 0.217717 0)
(-0.641242 0.149413 0)
(-0.679716 0.0672628 0)
(-0.6925 -0.023973 0)
(-0.677079 -0.117876 0)
(-0.632512 -0.20624 0)
(-0.560085 -0.279402 0)
(-0.464042 -0.32722 0)
(-0.352162 -0.340796 0)
(-0.235666 -0.314836 0)
(-0.12827 -0.250104 0)
(-0.046203 -0.155186 0)
(-0.00687279 -0.0476232 0)
(-0.010301 0.0885937 0)
(-0.0560367 0.230578 0)
(-0.140681 0.330978 0)
(-0.244792 0.390129 0)
(-0.355854 0.411678 0)
(-0.465871 0.39995 0)
(-0.56819 0.358968 0)
(-0.657075 0.292307 0)
(-0.727481 0.203474 0)
(-0.774832 0.0966084 0)
(-0.795012 -0.022748 0)
(-0.784611 -0.146991 0)
(-0.741458 -0.266089 0)
(-0.665459 -0.367723 0)
(-0.559711 -0.438226 0)
(-0.431659 -0.464588 0)
(-0.293634 -0.437594 0)
(-0.162362 -0.355502 0)
(-0.0594093 -0.227115 0)
(-0.00904753 -0.0736615 0)
(-0.0115883 0.119785 0)
(-0.0626555 0.304238 0)
(-0.156531 0.430709 0)
(-0.271143 0.503021 0)
(-0.392643 0.527766 0)
(-0.512684 0.511498 0)
(-0.624674 0.459746 0)
(-0.723123 0.376988 0)
(-0.803208 0.267236 0)
(-0.860343 0.134942 0)
(-0.889998 -0.0139772 0)
(-0.887824 -0.171179 0)
(-0.85014 -0.325167 0)
(-0.774903 -0.461043 0)
(-0.663215 -0.561155 0)
(-0.5212 -0.607166 0)
(-0.3615 -0.58396 0)
(-0.203757 -0.484999 0)
(-0.0760778 -0.317675 0)
(-0.0119623 -0.107101 0)
(-0.0127179 0.154239 0)
(-0.0683786 0.385127 0)
(-0.169972 0.539451 0)
(-0.292932 0.625271 0)
(-0.422251 0.652914 0)
(-0.549479 0.631763 0)
(-0.668412 0.569195 0)
(-0.774172 0.470693 0)
(-0.862532 0.340632 0)
(-0.929259 0.183434 0)
(-0.96971 0.00486519 0)
(-0.978758 -0.186642 0)
(-0.951135 -0.378783 0)
(-0.882387 -0.554516 0)
(-0.77067 -0.692073 0)
(-0.619383 -0.766665 0)
(-0.439957 -0.754869 0)
(-0.254099 -0.641971 0)
(-0.0974687 -0.430934 0)
(-0.0159992 -0.150112 0)
(-0.0137577 0.191509 0)
(-0.0733964 0.472057 0)
(-0.18113 0.655229 0)
(-0.309796 0.754167 0)
(-0.443357 0.783881 0)
(-0.573573 0.757302 0)
(-0.695055 0.684065 0)
(-0.804003 0.570782 0)
(-0.897289 0.422073 0)
(-0.971553 0.241969 0)
(-1.02257 0.0354901 0)
(-1.04489 -0.189666 0)
(-1.0319 -0.42137 0)
(-0.976583 -0.641392 0)
(-0.873263 -0.824341 0)
(-0.720899 -0.938328 0)
(-0.527318 -0.949083 0)
(-0.314171 -0.829085 0)
(-0.124862 -0.571591 0)
(-0.0216461 -0.205612 0)
(-0.014903 0.231341 0)
(-0.0783006 0.564007 0)
(-0.190727 0.775823 0)
(-0.321933 0.886195 0)
(-0.454944 0.91611 0)
(-0.582196 0.88294 0)
(-0.69968 0.799066 0)
(-0.805267 0.672396 0)
(-0.897532 0.507708 0)
(-0.974656 0.308326 0)
(-1.03356 0.0779398 0)
(-1.06928 -0.177406 0)
(-1.07457 -0.447042 0)
(-1.04012 -0.713102 0)
(-0.956017 -0.947999 0)
(-0.815035 -1.11315 0)
(-0.618192 -1.16142 0)
(-0.3832 -1.04681 0)
(-0.159507 -0.744379 0)
(-0.0295766 -0.277365 0)
(-0.0166132 0.274012 0)
(-0.084442 0.660494 0)
(-0.200536 0.898875 0)
(-0.330497 1.01688 0)
(-0.456614 1.04339 0)
(-0.572763 1.00134 0)
(-0.67712 0.906395 0)
(-0.769947 0.767913 0)
(-0.852202 0.590786 0)
(-0.924327 0.377401 0)
(-0.985267 0.129642 0)
(-1.03156 -0.14896 0)
(-1.05652 -0.45062 0)
(-1.04962 -0.759935 0)
(-0.997029 -1.04969 0)
(-0.8842 -1.27672 0)
(-0.701789 -1.38063 0)
(-0.45772 -1.29118 0)
(-0.202446 -0.952988 0)
(-0.0407622 -0.370125 0)
(-0.0198516 0.320974 0)
(-0.0944478 0.762143 0)
(-0.213825 1.02195 0)
(-0.337753 1.14047 0)
(-0.448437 1.1574 0)
(-0.542583 1.10258 0)
(-0.621726 0.995376 0)
(-0.689374 0.846648 0)
(-0.749528 0.661318 0)
(-0.805532 0.440702 0)
(-0.859139 0.184618 0)
(-0.909525 -0.106515 0)
(-0.952048 -0.429077 0)
(-0.976808 -0.772478 0)
(-0.967643 -1.1135 0)
(-0.902882 -1.40871 0)
(-0.759977 -1.58715 0)
(-0.5298 -1.5507 0)
(-0.254001 -1.19811 0)
(-0.0565922 -0.489832 0)
(-0.0265041 0.376001 0)
(-0.112904 0.871332 0)
(-0.235475 1.14221 0)
(-0.34629 1.24915 0)
(-0.429452 1.24693 0)
(-0.487022 1.17362 0)
(-0.525574 1.05226 0)
(-0.552795 0.894916 0)
(-0.576228 0.706264 0)
(-0.60245 0.486458 0)
(-0.636464 0.233253 0)
(-0.680901 -0.0561774 0)
(-0.734675 -0.383105 0)
(-0.790838 -0.743761 0)
(-0.833874 -1.12304 0)
(-0.837453 -1.48378 0)
(-0.7653 -1.75165 0)
(-0.584356 -1.80241 0)
(-0.31243 -1.47394 0)
(-0.0788498 -0.643541 0)
(-0.0400048 0.447064 0)
(-0.146906 0.992431 0)
(-0.270646 1.25491 0)
(-0.355533 1.3311 0)
(-0.392801 1.29642 0)
(-0.394153 1.19759 0)
(-0.373307 1.0603 0)
(-0.342885 0.896718 0)
(-0.314012 0.710619 0)
(-0.296223 0.500803 0)
(-0.297507 0.263201 0)
(-0.324041 -0.00780739 0)
(-0.379166 -0.318146 0)
(-0.461106 -0.671721 0)
(-0.558982 -1.06498 0)
(-0.647026 -1.47477 0)
(-0.679069 -1.83556 0)
(-0.595026 -2.00816 0)
(-0.370519 -1.76251 0)
(-0.10891 -0.838446 0)
(-0.0657127 0.549465 0)
(-0.204742 1.13011 0)
(-0.318347 1.34899 0)
(-0.351045 1.36658 0)
(-0.31327 1.28366 0)
(-0.23243 1.15322 0)
(-0.131 1.00055 0)
(-0.0262707 0.835595 0)
(0.0680801 0.65992 0)
(0.140855 0.470599 0)
(0.182366 0.26211 0)
(0.183919 0.027047 0)
(0.13812 -0.243757 0)
(0.04048 -0.560791 0)
(-0.106556 -0.933096 0)
(-0.285251 -1.35805 0)
(-0.449426 -1.7947 0)
(-0.517748 -2.11266 0)
(-0.407758 -2.02676 0)
(-0.144213 -1.08072 0)
(-0.108538 0.712108 0)
(-0.286056 1.28071 0)
(-0.348939 1.39352 0)
(-0.27609 1.31798 0)
(-0.119739 1.17507 0)
(0.0729653 1.01424 0)
(0.272892 0.853904 0)
(0.461246 0.698119 0)
(0.624914 0.544532 0)
(0.753807 0.388087 0)
(0.83897 0.222338 0)
(0.871378 0.0394945 0)
(0.841444 -0.170455 0)
(0.739336 -0.421199 0)
(0.557345 -0.73125 0)
(0.297811 -1.11994 0)
(-0.00900092 -1.58551 0)
(-0.281506 -2.04303 0)
(-0.376028 -2.20039 0)
(-0.167773 -1.37364 0)
(-0.155415 0.978399 0)
(-0.340063 1.40037 0)
(-0.237081 1.30636 0)
(0.0334863 1.11469 0)
(0.355057 0.92371 0)
(0.674823 0.75427 0)
(0.969804 0.608624 0)
(1.22811 0.48187 0)
(1.44292 0.36708 0)
(1.6093 0.257482 0)
(1.72213 0.14672 0)
(1.77477 0.0282336 0)
(1.75828 -0.106059 0)
(1.66044 -0.26816 0)
(1.46539 -0.478166 0)
(1.15686 -0.768828 0)
(0.73121 -1.18059 0)
(0.228184 -1.71324 0)
(-0.173244 -2.15933 0)
(-0.118898 -1.67487 0)
(-0.0475312 1.26942 0)
(-0.0720065 1.3168 0)
(0.411486 0.96892 0)
(0.958245 0.709522 0)
(1.42955 0.529326 0)
(1.82318 0.398409 0)
(2.14928 0.301131 0)
(2.41419 0.226127 0)
(2.62269 0.164579 0)
(2.77781 0.110107 0)
(2.88002 0.0580007 0)
(2.92688 0.00428071 0)
(2.91267 -0.055293 0)
(2.82691 -0.12735 0)
(2.65176 -0.224374 0)
(2.35833 -0.373267 0)
(1.90174 -0.630352 0)
(1.2245 -1.07915 0)
(0.452815 -1.68845 0)
(0.21749 -1.7017 0)
(1.43823 0.707181 0)
(1.83566 0.626561 0)
(2.56329 0.398267 0)
(3.13736 0.251659 0)
(3.51176 0.16425 0)
(3.76895 0.109425 0)
(3.95651 0.0739993 0)
(4.09487 0.0502357 0)
(4.19501 0.03312 0)
(4.26338 0.0195218 0)
(4.30304 0.00749215 0)
(4.31452 -0.00430694 0)
(4.29596 -0.0169541 0)
(4.24259 -0.0321721 0)
(4.14461 -0.0531772 0)
(3.98087 -0.0879789 0)
(3.70216 -0.158351 0)
(3.17411 -0.316145 0)
(2.29935 -0.62272 0)
(1.66814 -0.779818 0)
)
;

boundaryField
{
    movingWall
    {
        type            fixedValue;
        value           uniform (5.07376 0 0);
    }
    fixedWalls
    {
        type            noSlip;
    }
    frontAndBack
    {
        type            empty;
    }
}


// ************************************************************************* //
