/*--------------------------------*- C++ -*----------------------------------*\
  =========                 |
  \\      /  F ield         | OpenFOAM: The Open Source CFD Toolbox
   \\    /   O peration     | Website:  https://openfoam.org
    \\  /    A nd           | Version:  9
     \\/     M anipulation  |
\*---------------------------------------------------------------------------*/
FoamFile
{
    format      ascii;
    class       surfaceScalarField;
    location    "0.08";
    object      phi;
}
// * * * * * * * * * * * * * * * * * * * * * * * * * * * * * * * * * * * * * //

dimensions      [0 3 -1 0 0 0 0];

internalField   nonuniform List<scalar> 
67
(
-3.05746e-05
-7.96461e-05
-2.03069e-05
-8.52983e-05
-7.76649e-06
-7.32191e-05
-3.36348e-05
-2.91972e-05
-4.51573e-05
-3.1178e-05
-6.35156e-05
-2.95395e-05
-8.12847e-05
-2.22387e-05
-9.25991e-05
-9.79103e-06
-8.56668e-05
-4.34259e-05
-1.19319e-05
-3.8416e-05
-1.89308e-05
-5.65167e-05
-2.35292e-05
-7.66863e-05
-2.19652e-05
-9.41631e-05
-1.18442e-05
-9.57877e-05
-5.52701e-05
1.57194e-05
-2.86525e-05
3.36032e-06
-4.41575e-05
-9.15895e-06
-6.41671e-05
-1.67416e-05
-8.65804e-05
-1.28879e-05
-9.96414e-05
-6.8158e-05
5.65964e-05
-1.6977e-05
3.98564e-05
-2.74176e-05
1.90225e-05
-4.33331e-05
-1.17487e-06
-6.6383e-05
-1.00653e-05
-9.0751e-05
-7.82234e-05
0.000114285
-5.90259e-06
9.67826e-05
-9.91512e-06
7.09817e-05
-1.75322e-05
3.72672e-05
-3.26686e-05
5.28828e-06
-5.8772e-05
-7.29351e-05
0.000191823
0.000181908
0.000164376
0.000131707
7.29351e-05
)
;

boundaryField
{
    movingWall
    {
        type            calculated;
        value           uniform 0;
    }
    fixedWalls
    {
        type            calculated;
        value           uniform 0;
    }
    frontAndBack
    {
        type            empty;
        value           nonuniform List<scalar> 0();
    }
    procBoundary9to6
    {
        type            processor;
        value           nonuniform List<scalar> 6(2.57624e-05 5.19062e-06 -2.54829e-05 -6.82719e-05 -0.00012536 -0.000197726);
    }
    procBoundary9to8
    {
        type            processor;
        value           nonuniform List<scalar> 7(7.37695e-05 7.50306e-05 6.06787e-05 2.58684e-05 4.85921e-05 3.64512e-05 6.54964e-05);
    }
}


// ************************************************************************* //
