/*--------------------------------*- C++ -*----------------------------------*\
| =========                 |                                                 |
| \\      /  F ield         | OpenFOAM: The Open Source CFD Toolbox           |
|  \\    /   O peration     | Version:  2212                                  |
|   \\  /    A nd           | Website:  www.openfoam.com                      |
|    \\/     M anipulation  |                                                 |
\*---------------------------------------------------------------------------*/
FoamFile
{
    version     2.0;
    format      ascii;
    arch        "LSB;label=32;scalar=64";
    class       volVectorField;
    location    "0.3";
    object      U;
}
// * * * * * * * * * * * * * * * * * * * * * * * * * * * * * * * * * * * * * //

dimensions      [0 1 -1 0 0 0 0];

internalField   nonuniform List<vector> 
45
(
(0.0311356 0 0)
(0.0918474 0 0)
(0.148242 0 0)
(0.0382023 0 0)
(0.11221 0 0)
(0.179827 0 0)
(0.238646 0 0)
(0.287749 0 0)
(0.3272 0 0)
(0.0476704 0 0)
(0.13898 0 0)
(0.220231 0 0)
(0.288662 0 0)
(0.343975 0 0)
(0.387156 0 0)
(0.0611742 0 0)
(0.17582 0 0)
(0.273476 0 0)
(0.351824 0 0)
(0.412371 0 0)
(0.457882 0 0)
(0.0823848 0 0)
(0.22966 0 0)
(0.346047 0 0)
(0.432813 0 0)
(0.495833 0 0)
(0.540956 0 0)
(0.121093 0 0)
(0.314396 0 0)
(0.448254 0 0)
(0.537566 0 0)
(0.597216 0 0)
(0.637437 0 0)
(0.208686 0 0)
(0.458583 0 0)
(0.595018 0 0)
(0.671996 0 0)
(0.718046 0 0)
(0.747012 0 0)
(0.463755 0 0)
(0.716237 0 0)
(0.801244 0 0)
(0.837363 0 0)
(0.85597 0 0)
(0.866839 0 0)
)
;

boundaryField
{
    movingWall
    {
        type            fixedValue;
        value           uniform (0.928803 0 0);
    }
    fixedWalls
    {
        type            noSlip;
    }
    frontAndBack
    {
        type            empty;
    }
    procBoundary6to3
    {
        type            processor;
        value           nonuniform List<vector> 7((0.0256334 0 0) (0.0758185 0 0) (0.122941 0 0) (0.198383 0 0) (0.198383 0 0) (0.241217 0 0) (0.276383 0 0));
    }
    procBoundary6to7
    {
        type            processor;
        value           nonuniform List<vector> 7((0.35757 0 0) (0.419613 0 0) (0.491083 0 0) (0.572704 0 0) (0.664587 0 0) (0.765741 0 0) (0.873612 0 0));
    }
}


// ************************************************************************* //
