/*--------------------------------*- C++ -*----------------------------------*\
  =========                 |
  \\      /  F ield         | OpenFOAM: The Open Source CFD Toolbox
   \\    /   O peration     | Website:  https://openfoam.org
    \\  /    A nd           | Version:  9
     \\/     M anipulation  |
\*---------------------------------------------------------------------------*/
FoamFile
{
    format      ascii;
    class       surfaceScalarField;
    location    "0.02";
    object      phi;
}
// * * * * * * * * * * * * * * * * * * * * * * * * * * * * * * * * * * * * * //

dimensions      [0 3 -1 0 0 0 0];

internalField   nonuniform List<scalar> 
67
(
-5.41526e-09
3.00573e-09
-4.19548e-08
3.65436e-08
-6.86862e-08
2.6731e-08
-2.00857e-07
1.32171e-07
2.22266e-07
-3.23774e-07
3.26784e-07
-8.4902e-07
5.61782e-07
-1.37666e-06
5.54377e-07
-1.9323e-06
6.87802e-07
7.96556e-07
-6.03383e-07
9.30167e-07
-1.60106e-06
1.55946e-06
-2.64047e-06
1.59378e-06
-3.61723e-06
1.66456e-06
1.67873e-06
-6.21922e-07
1.55209e-06
-1.83357e-06
2.77111e-06
-3.1986e-06
2.95881e-06
-4.49138e-06
2.95734e-06
2.82331e-06
-5.66981e-07
2.11907e-06
-1.84437e-06
4.04849e-06
-3.38927e-06
4.50372e-06
-4.8909e-06
4.45897e-06
4.16748e-06
-5.20018e-07
2.63909e-06
-1.81536e-06
5.34383e-06
-3.45601e-06
6.14437e-06
-5.08873e-06
6.09168e-06
5.65835e-06
-5.01811e-07
3.1409e-06
-1.82424e-06
6.66626e-06
-3.54172e-06
7.86186e-06
-5.28188e-06
7.83183e-06
7.28532e-06
-5.35417e-07
-1.96215e-06
-3.82354e-06
-5.74133e-06
)
;

boundaryField
{
    movingWall
    {
        type            calculated;
        value           nonuniform List<scalar> 0();
    }
    fixedWalls
    {
        type            calculated;
        value           uniform 0;
    }
    frontAndBack
    {
        type            empty;
        value           nonuniform List<scalar> 0();
    }
    procBoundary0to1
    {
        type            processor;
        value           nonuniform List<scalar> 5(3.67632e-06 8.093e-06 9.72324e-06 9.74962e-06 9.12235e-06);
    }
    procBoundary0to2
    {
        type            processor;
        value           nonuniform List<scalar> 8(-4.23124e-07 -2.50659e-06 -4.4994e-06 -5.63596e-06 -6.23508e-06 -6.57959e-06 -6.90885e-06 -7.57836e-06);
    }
}


// ************************************************************************* //
