/*--------------------------------*- C++ -*----------------------------------*\
  =========                 |
  \\      /  F ield         | OpenFOAM: The Open Source CFD Toolbox
   \\    /   O peration     | Website:  https://openfoam.org
    \\  /    A nd           | Version:  9
     \\/     M anipulation  |
\*---------------------------------------------------------------------------*/
FoamFile
{
    format      ascii;
    class       volVectorField;
    location    "0.015";
    object      U;
}
// * * * * * * * * * * * * * * * * * * * * * * * * * * * * * * * * * * * * * //

dimensions      [0 1 -1 0 0 0 0];

internalField   nonuniform List<vector> 
40
(
(-0.0502913 -0.00233981 0)
(-0.0434562 -0.00419811 0)
(-0.0332189 -0.0053466 0)
(-0.0210987 -0.0056125 0)
(-0.00923166 -0.0050797 0)
(-0.00233185 -0.00229681 0)
(-0.0892414 -0.0093648 0)
(-0.0781397 -0.0155448 0)
(-0.0611421 -0.0199188 0)
(-0.0405487 -0.0213119 0)
(-0.0195687 -0.019321 0)
(-0.00513431 -0.00894633 0)
(-0.099514 -0.0193575 0)
(-0.0880266 -0.0310385 0)
(-0.0701145 -0.0400761 0)
(-0.0472752 -0.0437666 0)
(-0.0232829 -0.0407509 0)
(-0.00612903 -0.02098 0)
(-0.103327 -0.0298318 0)
(-0.0916581 -0.0464729 0)
(-0.0742744 -0.0615517 0)
(-0.0509639 -0.0682724 0)
(-0.0254563 -0.064654 0)
(-0.00682823 -0.0346894 0)
(-0.104412 -0.0421313 0)
(-0.090832 -0.0627989 0)
(-0.0721914 -0.0809191 0)
(-0.0505572 -0.0927571 0)
(-0.0256592 -0.0894565 0)
(-0.00698597 -0.0494617 0)
(-0.106912 -0.0560862 0)
(-0.0890377 -0.0793515 0)
(-0.0697418 -0.102176 0)
(-0.0452517 -0.113257 0)
(-0.0228014 -0.111725 0)
(-0.0059599 -0.0627432 0)
(-0.0723406 -0.123639 0)
(-0.0462756 -0.137227 0)
(-0.0201994 -0.1314 0)
(-0.00471042 -0.0735533 0)
)
;

boundaryField
{
    movingWall
    {
        type            fixedValue;
        value           nonuniform List<vector> 0();
    }
    fixedWalls
    {
        type            noSlip;
    }
    frontAndBack
    {
        type            empty;
    }
    procBoundary7to5
    {
        type            processor;
        value           nonuniform List<vector> 6((-0.0539439 -0.000908251 0) (-0.0962459 -0.00489448 0) (-0.107784 -0.0111596 0) (-0.113384 -0.0191451 0) (-0.116346 -0.0282434 0) (-0.123843 -0.0412973 0));
    }
    procBoundary7to8
    {
        type            processor;
        value           nonuniform List<vector> 7((-0.121371 -0.0762102 0) (-0.0999327 -0.102028 0) (-0.0999327 -0.102028 0) (-0.0916107 -0.155615 0) (-0.0561737 -0.16571 0) (-0.0247297 -0.155838 0) (-0.00516957 -0.0845295 0));
    }
}


// ************************************************************************* //
