/*--------------------------------*- C++ -*----------------------------------*\
  =========                 |
  \\      /  F ield         | OpenFOAM: The Open Source CFD Toolbox
   \\    /   O peration     | Website:  https://openfoam.org
    \\  /    A nd           | Version:  8
     \\/     M anipulation  |
\*---------------------------------------------------------------------------*/
FoamFile
{
    version     2.0;
    format      ascii;
    class       volScalarField;
    location    "1";
    object      p;
}
// * * * * * * * * * * * * * * * * * * * * * * * * * * * * * * * * * * * * * //

dimensions      [0 2 -2 0 0 0 0];

internalField   nonuniform List<scalar> 
400
(
-0.0992367
-0.198282
-0.251461
-0.276857
-0.280499
-0.268284
-0.243338
-0.20625
-0.159664
-0.106573
-0.0492122
0.0102346
0.0689995
0.123939
0.172178
0.211668
0.241415
0.261404
0.272418
0.27608
-0.198669
-0.239167
-0.268714
-0.283876
-0.282867
-0.268011
-0.241663
-0.204515
-0.158755
-0.106739
-0.0502877
0.00857649
0.0670713
0.121921
0.170055
0.209254
0.238447
0.257561
0.266961
0.266607
-0.250396
-0.268615
-0.280429
-0.284838
-0.27751
-0.260159
-0.234083
-0.198977
-0.156387
-0.108092
-0.0552414
0.000704718
0.0571597
0.110619
0.157532
0.195251
0.222592
0.2397
0.24714
0.245385
-0.273417
-0.28092
-0.280927
-0.276733
-0.264106
-0.244974
-0.220222
-0.188718
-0.15138
-0.109371
-0.062928
-0.0125713
0.03961
0.089977
0.134428
0.16975
0.19451
0.208975
0.214059
0.2108
-0.278247
-0.27928
-0.27183
-0.261234
-0.24427
-0.223717
-0.200627
-0.173302
-0.142174
-0.108084
-0.0704784
-0.028703
0.0160726
0.060463
0.100086
0.131342
0.152565
0.163933
0.166661
0.162183
-0.270558
-0.267851
-0.255937
-0.24125
-0.221306
-0.199925
-0.178823
-0.155932
-0.131179
-0.105609
-0.0784672
-0.0479778
-0.0139022
0.0213191
0.0536013
0.0792504
0.0963235
0.104612
0.105572
0.100819
-0.255977
-0.252039
-0.238464
-0.222413
-0.201437
-0.180144
-0.161351
-0.14294
-0.123847
-0.105769
-0.0888935
-0.0709854
-0.0501303
-0.0269456
-0.00428119
0.0146364
0.0275927
0.0335736
0.033979
0.0302506
-0.239838
-0.236995
-0.224699
-0.210483
-0.19117
-0.171444
-0.155495
-0.142111
-0.128064
-0.115391
-0.106553
-0.100266
-0.0932545
-0.0835708
-0.0717233
-0.0596818
-0.0498332
-0.0445127
-0.0430594
-0.0448189
-0.224569
-0.225085
-0.217079
-0.208403
-0.194633
-0.179294
-0.167349
-0.160915
-0.153149
-0.144536
-0.140412
-0.142358
-0.146979
-0.149696
-0.147811
-0.141191
-0.132172
-0.124977
-0.120809
-0.120805
-0.208398
-0.213964
-0.212933
-0.213619
-0.210519
-0.204746
-0.198883
-0.202702
-0.205603
-0.203023
-0.20177
-0.207696
-0.21931
-0.230458
-0.235171
-0.230628
-0.218775
-0.206199
-0.197497
-0.197086
-0.185182
-0.196338
-0.204814
-0.218602
-0.231943
-0.244338
-0.24833
-0.265721
-0.28562
-0.295308
-0.29926
-0.307007
-0.320721
-0.334697
-0.340807
-0.333584
-0.314129
-0.291446
-0.275109
-0.27491
-0.145749
-0.162351
-0.184466
-0.216315
-0.251174
-0.293326
-0.314708
-0.347935
-0.388918
-0.417984
-0.433173
-0.444525
-0.457808
-0.469714
-0.472095
-0.457681
-0.425888
-0.387071
-0.356532
-0.352504
-0.0812563
-0.104317
-0.148141
-0.20749
-0.267067
-0.347654
-0.398525
-0.451028
-0.512334
-0.563066
-0.59456
-0.613212
-0.625818
-0.632351
-0.62745
-0.603826
-0.55738
-0.496248
-0.439613
-0.419221
0.0130741
-0.0208817
-0.0965487
-0.198055
-0.286201
-0.398907
-0.487692
-0.567826
-0.650064
-0.721915
-0.77234
-0.800136
-0.808168
-0.802188
-0.785142
-0.752735
-0.694308
-0.608459
-0.510807
-0.453397
0.13864
0.0837439
-0.0258863
-0.175033
-0.303648
-0.426265
-0.542044
-0.658633
-0.775003
-0.87867
-0.958282
-1.00078
-0.984673
-0.942433
-0.897598
-0.853223
-0.789288
-0.685757
-0.540391
-0.426366
0.302618
0.209496
0.0781048
-0.0842502
-0.266031
-0.397651
-0.52806
-0.690396
-0.876068
-1.05303
-1.18814
-1.2415
-1.18412
-1.05281
-0.918929
-0.827354
-0.754604
-0.65274
-0.481109
-0.310588
0.525687
0.383107
0.239518
0.116847
-0.0926611
-0.292408
-0.515812
-0.783472
-1.07253
-1.33474
-1.51757
-1.57842
-1.4981
-1.26528
-0.955983
-0.669747
-0.483871
-0.390797
-0.265896
-0.0892365
0.838118
0.69078
0.544024
0.367159
0.0753882
-0.270023
-0.665716
-1.06826
-1.41722
-1.68021
-1.84645
-1.91043
-1.86159
-1.66675
-1.27563
-0.696358
-0.132497
0.200085
0.247549
0.314976
1.45571
1.2565
0.952507
0.482471
-0.106417
-0.645834
-1.08715
-1.44692
-1.73216
-1.94357
-2.08297
-2.1502
-2.13576
-2.01133
-1.72168
-1.18061
-0.311458
0.604845
1.10347
1.20014
2.10158
1.62432
0.831017
-0.00133906
-0.585276
-1.0034
-1.34277
-1.62895
-1.86218
-2.0403
-2.16315
-2.22944
-2.23066
-2.14635
-1.94347
-1.57691
-0.945713
0.126221
1.46265
2.19115
)
;

boundaryField
{
    movingWall
    {
        type            zeroGradient;
    }
    fixedWalls
    {
        type            zeroGradient;
    }
    frontAndBack
    {
        type            empty;
    }
}


// ************************************************************************* //
