/*--------------------------------*- C++ -*----------------------------------*\
  =========                 |
  \\      /  F ield         | OpenFOAM: The Open Source CFD Toolbox
   \\    /   O peration     | Website:  https://openfoam.org
    \\  /    A nd           | Version:  8
     \\/     M anipulation  |
\*---------------------------------------------------------------------------*/
FoamFile
{
    version     2.0;
    format      ascii;
    class       surfaceScalarField;
    location    "1";
    object      phi;
}
// * * * * * * * * * * * * * * * * * * * * * * * * * * * * * * * * * * * * * //

dimensions      [0 3 -1 0 0 0 0];

internalField   nonuniform List<scalar> 
760
(
6.40167e-08
-6.41816e-08
-1.33948e-07
1.97965e-07
-6.01617e-07
4.67673e-07
-1.25019e-06
6.48573e-07
-1.98687e-06
7.36676e-07
-2.73057e-06
7.43701e-07
-3.41237e-06
6.81805e-07
-3.97289e-06
5.60512e-07
-4.3604e-06
3.87513e-07
-4.53213e-06
1.71736e-07
-4.45885e-06
-7.32867e-08
-4.13183e-06
-3.27022e-07
-3.57021e-06
-5.61609e-07
-2.82621e-06
-7.44003e-07
-1.9853e-06
-8.40914e-07
-1.15925e-06
-8.26048e-07
-4.70707e-07
-6.88542e-07
-2.97961e-08
-4.40911e-07
1.02248e-07
-1.32041e-07
1.02252e-07
-1.96348e-07
1.32156e-07
-9.66466e-07
9.68092e-07
-2.2575e-06
1.75871e-06
-3.90732e-06
2.29839e-06
-5.72983e-06
2.55919e-06
-7.54625e-06
2.56012e-06
-9.19507e-06
2.33062e-06
-1.05341e-05
1.89952e-06
-1.1442e-05
1.29547e-06
-1.18239e-05
5.5362e-07
-1.16209e-05
-2.76284e-07
-1.08233e-05
-1.12462e-06
-9.48312e-06
-1.90181e-06
-7.72149e-06
-2.50563e-06
-5.72636e-06
-2.83605e-06
-3.73555e-06
-2.81686e-06
-2.00316e-06
-2.42094e-06
-7.50325e-07
-1.69375e-06
-1.03269e-07
-7.79107e-07
-1.01334e-09
-5.06317e-07
6.38479e-07
-1.893e-06
2.35477e-06
-3.9685e-06
3.83422e-06
-6.49234e-06
4.82223e-06
-9.21165e-06
5.2785e-06
-1.18842e-05
5.23272e-06
-1.42887e-05
4.73506e-06
-1.62286e-05
3.83947e-06
-1.75373e-05
2.60414e-06
-1.80857e-05
1.10206e-06
-1.77957e-05
-5.66311e-07
-1.66555e-05
-2.26478e-06
-1.47353e-05
-3.82206e-06
-1.21961e-05
-5.04486e-06
-9.28758e-06
-5.74453e-06
-6.32818e-06
-5.77626e-06
-3.6638e-06
-5.08532e-06
-1.60794e-06
-3.74961e-06
-3.71408e-07
-2.01564e-06
-3.7242e-07
-7.89709e-07
1.42819e-06
-2.76939e-06
4.33445e-06
-5.58938e-06
6.65421e-06
-8.9154e-06
8.14824e-06
-1.2432e-05
8.79508e-06
-1.58492e-05
8.64997e-06
-1.89057e-05
7.79151e-06
-2.13699e-05
6.30367e-06
-2.30444e-05
4.27871e-06
-2.37748e-05
1.83246e-06
-2.34634e-05
-8.77767e-07
-2.2087e-05
-3.64114e-06
-1.97158e-05
-6.19334e-06
-1.65266e-05
-8.23401e-06
-1.28066e-05
-9.46455e-06
-8.93666e-06
-9.64619e-06
-5.35063e-06
-8.67135e-06
-2.46992e-06
-6.63031e-06
-6.26359e-07
-3.8592e-06
-9.98778e-07
-1.04218e-06
2.47037e-06
-3.57103e-06
6.8633e-06
-7.08533e-06
1.01685e-05
-1.1154e-05
1.22169e-05
-1.54014e-05
1.30425e-05
-1.94993e-05
1.27478e-05
-2.31588e-05
1.1451e-05
-2.61261e-05
9.27093e-06
-2.81821e-05
6.33475e-06
-2.91496e-05
2.80001e-06
-2.89065e-05
-1.12095e-06
-2.74047e-05
-5.1429e-06
-2.46941e-05
-8.90393e-06
-2.09447e-05
-1.19835e-05
-1.6461e-05
-1.39482e-05
-1.16783e-05
-1.44289e-05
-7.12699e-06
-1.32227e-05
-3.36368e-06
-1.03936e-05
-8.77294e-07
-6.34559e-06
-1.87607e-06
-1.26722e-06
3.73758e-06
-4.29563e-06
9.89171e-06
-8.44663e-06
1.43195e-05
-1.31973e-05
1.69676e-05
-1.81175e-05
1.79627e-05
-2.28485e-05
1.74788e-05
-2.70846e-05
1.56872e-05
-3.05594e-05
1.27457e-05
-3.30391e-05
8.81446e-06
-3.43247e-05
4.08568e-06
-3.4263e-05
-1.18267e-06
-3.27664e-05
-6.63953e-06
-2.98422e-05
-1.18281e-05
-2.56274e-05
-1.61982e-05
-2.04215e-05
-1.91541e-05
-1.47024e-05
-2.0148e-05
-9.10715e-06
-1.88179e-05
-4.36001e-06
-1.51408e-05
-1.15215e-06
-9.55345e-06
-3.02822e-06
-1.46715e-06
5.20473e-06
-4.94246e-06
1.3367e-05
-9.66411e-06
1.90412e-05
-1.5026e-05
2.23294e-05
-2.05509e-05
2.34876e-05
-2.58597e-05
2.27876e-05
-3.06406e-05
2.04681e-05
-3.46252e-05
1.67303e-05
-3.75731e-05
1.17623e-05
-3.92665e-05
5.7791e-06
-3.95167e-05
-9.32514e-07
-3.81829e-05
-7.97332e-06
-3.52069e-05
-1.48041e-05
-3.06618e-05
-2.07434e-05
-2.48087e-05
-2.50072e-05
-1.81452e-05
-2.68114e-05
-1.14147e-05
-2.55484e-05
-5.5426e-06
-2.10129e-05
-1.48328e-06
-1.36128e-05
-4.5115e-06
-1.64262e-06
6.84735e-06
-5.50851e-06
1.72329e-05
-1.07232e-05
2.42559e-05
-1.66055e-05
2.82117e-05
-2.2641e-05
2.9523e-05
-2.84415e-05
2.85881e-05
-3.37028e-05
2.57294e-05
-3.81683e-05
2.11958e-05
-4.1603e-05
1.5197e-05
-4.37788e-05
7.95493e-06
-4.44733e-05
-2.38047e-07
-4.34845e-05
-8.96213e-06
-4.06675e-05
-1.76211e-05
-3.59958e-05
-2.54151e-05
-2.9646e-05
-3.1357e-05
-2.20901e-05
-3.43673e-05
-1.41558e-05
-3.34827e-05
-6.99509e-06
-2.81736e-05
-1.90475e-06
-1.87031e-05
-6.41625e-06
-1.79442e-06
8.64177e-06
-5.99175e-06
2.14303e-05
-1.16079e-05
2.9872e-05
-1.78914e-05
3.44952e-05
-2.43007e-05
3.59323e-05
-3.04535e-05
3.4741e-05
-3.60704e-05
3.13463e-05
-4.09251e-05
2.60505e-05
-4.48064e-05
1.90784e-05
-4.74926e-05
1.06411e-05
-4.87393e-05
1.00861e-06
-4.82857e-05
-9.41565e-06
-4.5887e-05
-2.00198e-05
-4.13815e-05
-2.99206e-05
-3.4802e-05
-3.79365e-05
-2.6521e-05
-4.26483e-05
-1.73916e-05
-4.26121e-05
-8.79188e-06
-3.67733e-05
-2.4522e-06
-2.50428e-05
-8.86845e-06
-1.92782e-06
1.05696e-05
-6.4005e-06
2.59029e-05
-1.23128e-05
3.57843e-05
-1.88417e-05
4.10242e-05
-2.543e-05
4.25207e-05
-3.172e-05
4.1031e-05
-3.74792e-05
3.71054e-05
-4.25357e-05
3.1107e-05
-4.6728e-05
2.32706e-05
-4.98668e-05
1.37799e-05
-5.17107e-05
2.85257e-06
-5.19584e-05
-9.16794e-06
-5.02671e-05
-2.17112e-05
-4.63144e-05
-3.38733e-05
-3.99239e-05
-4.43271e-05
-3.12652e-05
-5.13069e-05
-2.11034e-05
-5.27738e-05
-1.09877e-05
-4.68891e-05
-3.16436e-06
-3.28661e-05
-1.20328e-05
-2.05981e-06
1.26294e-05
-6.76864e-06
3.06118e-05
-1.2862e-05
4.18777e-05
-1.94367e-05
4.75988e-05
-2.59347e-05
4.90187e-05
-3.20488e-05
4.7145e-05
-3.76222e-05
4.26788e-05
-4.25675e-05
3.60524e-05
-4.68045e-05
2.75076e-05
-5.02115e-05
1.7187e-05
-5.25885e-05
5.22957e-06
-5.36308e-05
-8.12564e-06
-5.29244e-05
-2.24176e-05
-4.99837e-05
-3.6814e-05
-4.43685e-05
-4.99423e-05
-3.59217e-05
-5.97538e-05
-2.51421e-05
-6.35534e-05
-1.36001e-05
-5.84311e-05
-4.08515e-06
-4.2381e-05
-1.61179e-05
-2.23073e-06
1.48601e-05
-7.17661e-06
3.55577e-05
-1.3331e-05
4.80321e-05
-1.9696e-05
5.39638e-05
-2.57404e-05
5.50631e-05
-3.1246e-05
5.26506e-05
-3.61699e-05
4.76027e-05
-4.05438e-05
4.04263e-05
-4.44035e-05
3.13673e-05
-4.77347e-05
2.05182e-05
-5.04265e-05
7.92129e-06
-5.22267e-05
-6.32542e-06
-5.27064e-05
-2.19378e-05
-5.12536e-05
-3.82668e-05
-4.71455e-05
-5.40503e-05
-3.97808e-05
-6.71185e-05
-2.91563e-05
-7.4178e-05
-1.65775e-05
-7.10099e-05
-5.26558e-06
-5.36929e-05
-2.13835e-05
-2.52288e-06
1.7383e-05
-7.77703e-06
4.08118e-05
-1.38615e-05
5.41165e-05
-1.96788e-05
5.97812e-05
-2.47814e-05
6.01657e-05
-2.9103e-05
5.69723e-05
-3.27642e-05
5.12639e-05
-3.59535e-05
4.36157e-05
-3.88551e-05
3.42689e-05
-4.15975e-05
2.32606e-05
-4.42062e-05
1.053e-05
-4.65476e-05
-3.98402e-06
-4.82618e-05
-2.02236e-05
-4.86966e-05
-3.78321e-05
-4.6895e-05
-5.58519e-05
-4.17484e-05
-7.22651e-05
-3.24976e-05
-8.34288e-05
-1.97416e-05
-8.37659e-05
-6.76207e-06
-6.66725e-05
-2.81456e-05
-3.09057e-06
2.04736e-05
-8.81713e-06
4.65384e-05
-1.46449e-05
5.99443e-05
-1.94256e-05
6.45619e-05
-2.2917e-05
6.36571e-05
-2.53051e-05
5.93603e-05
-2.69377e-05
5.28964e-05
-2.81957e-05
4.48737e-05
-2.94322e-05
3.55053e-05
-3.09373e-05
2.47657e-05
-3.29043e-05
1.2497e-05
-3.53756e-05
-1.51277e-06
-3.8156e-05
-1.74432e-05
-4.06873e-05
-3.53008e-05
-4.19185e-05
-5.46207e-05
-4.02888e-05
-7.38947e-05
-3.40992e-05
-8.96184e-05
-2.26834e-05
-9.51817e-05
-8.61888e-06
-8.0737e-05
-3.67645e-05
-4.20112e-06
2.46747e-05
-1.06232e-05
5.29604e-05
-1.57987e-05
6.51198e-05
-1.87471e-05
6.75103e-05
-1.96749e-05
6.45849e-05
-1.91684e-05
5.88539e-05
-1.78723e-05
5.16003e-05
-1.63796e-05
4.3381e-05
-1.5206e-05
3.43318e-05
-1.47899e-05
2.43496e-05
-1.54874e-05
1.31945e-05
-1.75403e-05
5.40164e-07
-2.09942e-05
-1.39893e-05
-2.55397e-05
-3.07553e-05
-3.02657e-05
-4.98947e-05
-3.33971e-05
-7.07633e-05
-3.23188e-05
-9.06967e-05
-2.45676e-05
-0.000102933
-1.07938e-05
-9.45109e-05
-4.75582e-05
-6.24817e-06
3.09229e-05
-1.34084e-05
6.01207e-05
-1.6928e-05
6.86393e-05
-1.66415e-05
6.72239e-05
-1.36306e-05
6.15739e-05
-9.053e-06
5.42763e-05
-3.88363e-06
4.64309e-05
1.10399e-06
3.83934e-05
5.29017e-06
3.01456e-05
8.15289e-06
2.14868e-05
9.23122e-06
1.21162e-05
8.11912e-06
1.65227e-06
4.51459e-06
-1.03848e-05
-1.64168e-06
-2.4599e-05
-9.8606e-06
-4.16758e-05
-1.85972e-05
-6.20266e-05
-2.47201e-05
-8.45739e-05
-2.37602e-05
-0.000103893
-1.29209e-05
-0.00010535
-6.04791e-05
-9.56432e-06
4.04872e-05
-1.6432e-05
6.69884e-05
-1.5827e-05
6.80344e-05
-9.89354e-06
6.12904e-05
-1.12729e-06
5.28077e-05
8.7058e-06
4.44432e-05
1.84254e-05
3.67113e-05
2.72342e-05
2.95846e-05
3.45551e-05
2.28247e-05
3.99129e-05
1.6129e-05
4.28575e-05
9.17163e-06
4.29202e-05
1.58956e-06
3.96127e-05
-7.07729e-06
3.24902e-05
-1.74765e-05
2.13957e-05
-3.05813e-05
7.06289e-06
-4.76939e-05
-7.76784e-06
-6.97431e-05
-1.72186e-05
-9.4442e-05
-1.37692e-05
-0.0001088
-7.42483e-05
-1.3436e-05
5.39232e-05
-1.50881e-05
6.86405e-05
-5.10225e-06
5.80485e-05
9.81101e-06
4.63772e-05
2.58475e-05
3.67711e-05
4.12228e-05
2.9068e-05
5.50563e-05
2.28778e-05
6.68838e-05
1.77571e-05
7.64168e-05
1.32917e-05
8.34036e-05
9.14218e-06
8.75495e-05
5.02568e-06
8.84622e-05
6.76832e-07
8.5616e-05
-4.23104e-06
7.83042e-05
-1.01647e-05
6.56975e-05
-1.79746e-05
4.72153e-05
-2.92117e-05
2.38112e-05
-4.6339e-05
7.1586e-07
-7.13466e-05
-1.02201e-05
-9.78636e-05
-8.44684e-05
-9.41536e-06
6.33385e-05
8.82147e-06
5.04037e-05
3.51901e-05
3.16798e-05
6.00547e-05
2.15126e-05
8.15109e-05
1.5315e-05
9.94878e-05
1.10911e-05
0.000114244
8.1216e-06
0.000126063
5.93785e-06
0.00013515
4.20501e-06
0.000141588
2.70362e-06
0.000145328
1.28623e-06
0.000146161
-1.56478e-07
0.000143697
-1.76709e-06
0.000137234
-3.70157e-06
0.0001256
-6.34058e-06
0.000106945
-1.05563e-05
7.91169e-05
-1.85112e-05
4.23171e-05
-3.45469e-05
6.90434e-06
-6.24508e-05
-7.75641e-05
6.33385e-05
0.000113742
0.000145422
0.000166935
0.00018225
0.000193341
0.000201462
0.0002074
0.000211605
0.000214309
0.000215595
0.000215439
0.000213671
0.00020997
0.000203629
0.000193073
0.000174562
0.000140015
7.75641e-05
)
;

boundaryField
{
    movingWall
    {
        type            calculated;
        value           uniform 0;
    }
    fixedWalls
    {
        type            calculated;
        value           uniform 0;
    }
    frontAndBack
    {
        type            empty;
        value           nonuniform List<scalar> 0();
    }
}


// ************************************************************************* //
