/*--------------------------------*- C++ -*----------------------------------*\
  =========                 |
  \\      /  F ield         | OpenFOAM: The Open Source CFD Toolbox
   \\    /   O peration     | Website:  https://openfoam.org
    \\  /    A nd           | Version:  8
     \\/     M anipulation  |
\*---------------------------------------------------------------------------*/
FoamFile
{
    version     2.0;
    format      ascii;
    class       volVectorField;
    location    "1";
    object      U;
}
// * * * * * * * * * * * * * * * * * * * * * * * * * * * * * * * * * * * * * //

dimensions      [0 1 -1 0 0 0 0];

internalField   nonuniform List<vector> 
400
(
(0.00120436 -0.00120854 0)
(0.000401493 0.000673309 0)
(-0.00645433 0.00286882 0)
(-0.0179768 0.00434257 0)
(-0.0321894 0.00507168 0)
(-0.047319 0.00518798 0)
(-0.0618598 0.00480841 0)
(-0.0745295 0.00400954 0)
(-0.0842138 0.00283906 0)
(-0.0899545 0.00134653 0)
(-0.0910087 -0.000383536 0)
(-0.0869704 -0.00220816 0)
(-0.0779225 -0.00391851 0)
(-0.0645716 -0.00525569 0)
(-0.0483114 -0.00594933 0)
(-0.0311632 -0.00577643 0)
(-0.0155527 -0.00463111 0)
(-0.00391007 -0.00259546 0)
(0.00189345 -8.64442e-05 0)
(0.00157809 0.00152531 0)
(-0.000623623 -0.000512484 0)
(-0.00896831 0.00884384 0)
(-0.0300708 0.0184117 0)
(-0.0604136 0.0249967 0)
(-0.0960255 0.0282516 0)
(-0.133231 0.0284825 0)
(-0.168616 0.0260862 0)
(-0.199127 0.0214087 0)
(-0.22211 0.0147586 0)
(-0.235368 0.0065034 0)
(-0.237308 -0.0028173 0)
(-0.227191 -0.0124153 0)
(-0.205397 -0.0212458 0)
(-0.173647 -0.0280915 0)
(-0.135077 -0.0317444 0)
(-0.0940613 -0.0312699 0)
(-0.0556928 -0.0263176 0)
(-0.0249299 -0.0174203 0)
(-0.00570127 -0.00641705 0)
(0.000313034 0.00208456 0)
(-0.00307707 0.00650071 0)
(-0.0201155 0.0303457 0)
(-0.0556052 0.0520997 0)
(-0.103039 0.066932 0)
(-0.156732 0.0740295 0)
(-0.211797 0.073821 0)
(-0.263605 0.0670657 0)
(-0.307945 0.0545586 0)
(-0.341153 0.0371297 0)
(-0.360221 0.0158135 0)
(-0.363012 -0.00794778 0)
(-0.348555 -0.0321689 0)
(-0.31738 -0.0543319 0)
(-0.271784 -0.071587 0)
(-0.215928 -0.0811627 0)
(-0.155636 -0.0809602 0)
(-0.0977514 -0.0702474 0)
(-0.0490648 -0.050301 0)
(-0.0155848 -0.0250406 0)
(-0.00167198 -0.00260488 0)
(-0.00527475 0.01956 0)
(-0.0305838 0.0642657 0)
(-0.0799147 0.101473 0)
(-0.14332 0.12601 0)
(-0.21331 0.13708 0)
(-0.284026 0.135434 0)
(-0.350004 0.122309 0)
(-0.406282 0.0990562 0)
(-0.448535 0.0671639 0)
(-0.473193 0.0285087 0)
(-0.47766 -0.0143459 0)
(-0.460647 -0.0579527 0)
(-0.422553 -0.0980001 0)
(-0.365807 -0.129627 0)
(-0.295082 -0.148075 0)
(-0.217194 -0.149657 0)
(-0.140478 -0.132909 0)
(-0.0736504 -0.0996476 0)
(-0.0253493 -0.0557768 0)
(-0.00346189 -0.0125758 0)
(-0.00717669 0.0379874 0)
(-0.0400409 0.109585 0)
(-0.102295 0.165112 0)
(-0.180566 0.200293 0)
(-0.265558 0.215069 0)
(-0.350558 0.210899 0)
(-0.429506 0.18969 0)
(-0.496962 0.153445 0)
(-0.548171 0.104359 0)
(-0.579129 0.0451852 0)
(-0.586764 -0.0203574 0)
(-0.569282 -0.0872909 0)
(-0.526601 -0.149365 0)
(-0.460831 -0.199432 0)
(-0.376693 -0.230305 0)
(-0.28168 -0.236113 0)
(-0.185598 -0.213995 0)
(-0.0994573 -0.165723 0)
(-0.035247 -0.0988073 0)
(-0.00511172 -0.0275325 0)
(-0.00884061 0.0611893 0)
(-0.0485202 0.165397 0)
(-0.122602 0.242065 0)
(-0.214527 0.288803 0)
(-0.313297 0.307043 0)
(-0.411476 0.299425 0)
(-0.5026 0.268773 0)
(-0.580965 0.217835 0)
(-0.641575 0.149499 0)
(-0.680074 0.0673078 0)
(-0.692871 -0.0239764 0)
(-0.677448 -0.117932 0)
(-0.632861 -0.206347 0)
(-0.560397 -0.279553 0)
(-0.464302 -0.3274 0)
(-0.352359 -0.340984 0)
(-0.235795 -0.315007 0)
(-0.128338 -0.250235 0)
(-0.0462259 -0.155261 0)
(-0.00687559 -0.0476423 0)
(-0.0103066 0.0886417 0)
(-0.0560657 0.230698 0)
(-0.140752 0.331145 0)
(-0.244914 0.390324 0)
(-0.356029 0.411883 0)
(-0.466102 0.400153 0)
(-0.568473 0.359156 0)
(-0.657407 0.292467 0)
(-0.727856 0.203593 0)
(-0.775239 0.0966757 0)
(-0.795439 -0.0227434 0)
(-0.785042 -0.147056 0)
(-0.741874 -0.266224 0)
(-0.665839 -0.367921 0)
(-0.560035 -0.438468 0)
(-0.43191 -0.464848 0)
(-0.293803 -0.437836 0)
(-0.162453 -0.355693 0)
(-0.0594409 -0.227229 0)
(-0.00905166 -0.0736934 0)
(-0.0115943 0.119849 0)
(-0.0626864 0.304394 0)
(-0.156606 0.430925 0)
(-0.271272 0.50327 0)
(-0.39283 0.528028 0)
(-0.51293 0.511758 0)
(-0.624977 0.459987 0)
(-0.723481 0.377197 0)
(-0.803615 0.267397 0)
(-0.860791 0.135039 0)
(-0.890475 -0.0139568 0)
(-0.888314 -0.171246 0)
(-0.850622 -0.325325 0)
(-0.775353 -0.461287 0)
(-0.663609 -0.561465 0)
(-0.521514 -0.607508 0)
(-0.361718 -0.58429 0)
(-0.203878 -0.485268 0)
(-0.0761212 -0.317841 0)
(-0.0119684 -0.107151 0)
(-0.0127239 0.15432 0)
(-0.06841 0.38532 0)
(-0.170049 0.539716 0)
(-0.293063 0.625577 0)
(-0.422442 0.653236 0)
(-0.54973 0.632082 0)
(-0.668723 0.569495 0)
(-0.774542 0.470957 0)
(-0.862958 0.340842 0)
(-0.929733 0.183571 0)
(-0.970223 0.00491147 0)
(-0.979295 -0.186702 0)
(-0.951676 -0.378956 0)
(-0.882906 -0.554801 0)
(-0.771136 -0.692452 0)
(-0.619766 -0.7671 0)
(-0.440233 -0.755303 0)
(-0.254258 -0.642338 0)
(-0.0975282 -0.43117 0)
(-0.0160082 -0.150186 0)
(-0.0137635 0.191607 0)
(-0.0734267 0.472288 0)
(-0.181204 0.655544 0)
(-0.309924 0.754529 0)
(-0.443542 0.784263 0)
(-0.573818 0.757682 0)
(-0.69536 0.684425 0)
(-0.804369 0.571105 0)
(-0.897714 0.422338 0)
(-0.972033 0.242153 0)
(-1.02309 0.035573 0)
(-1.04545 -0.189706 0)
(-1.03249 -0.421547 0)
(-0.977156 -0.64171 0)
(-0.873795 -0.824785 0)
(-0.721353 -0.938861 0)
(-0.527658 -0.949638 0)
(-0.314376 -0.829571 0)
(-0.124942 -0.571918 0)
(-0.0216594 -0.205721 0)
(-0.0149083 0.231455 0)
(-0.0783287 0.564273 0)
(-0.190796 0.776185 0)
(-0.322051 0.886611 0)
(-0.455116 0.916549 0)
(-0.582424 0.883379 0)
(-0.699964 0.799486 0)
(-0.805609 0.672778 0)
(-0.897933 0.50803 0)
(-0.975114 0.308565 0)
(-1.03408 0.0780691 0)
(-1.06984 -0.177413 0)
(-1.07516 -0.447206 0)
(-1.04072 -0.713436 0)
(-0.956595 -0.948497 0)
(-0.815549 -1.11378 0)
(-0.618597 -1.16211 0)
(-0.383457 -1.04744 0)
(-0.159615 -0.744821 0)
(-0.0295962 -0.27752 0)
(-0.016618 0.274139 0)
(-0.0844673 0.660793 0)
(-0.200598 0.89928 0)
(-0.330602 1.01734 0)
(-0.456765 1.04388 0)
(-0.572962 1.00184 0)
(-0.677368 0.90687 0)
(-0.770245 0.768351 0)
(-0.852552 0.591166 0)
(-0.924731 0.377696 0)
(-0.985725 0.129824 0)
(-1.03207 -0.148921 0)
(-1.05707 -0.450754 0)
(-1.0502 -0.760265 0)
(-0.997615 -1.05022 0)
(-0.884749 -1.27743 0)
(-0.702247 -1.38144 0)
(-0.458031 -1.29197 0)
(-0.202588 -0.953572 0)
(-0.0407909 -0.370343 0)
(-0.0198563 0.321114 0)
(-0.0944712 0.762471 0)
(-0.21388 1.02239 0)
(-0.337845 1.14098 0)
(-0.448565 1.15793 0)
(-0.542746 1.10312 0)
(-0.621926 0.995895 0)
(-0.68961 0.847132 0)
(-0.749803 0.661745 0)
(-0.805849 0.441048 0)
(-0.859502 0.184852 0)
(-0.909938 -0.106425 0)
(-0.952511 -0.429167 0)
(-0.977317 -0.77278 0)
(-0.968183 -1.11403 0)
(-0.903421 -1.40946 0)
(-0.76046 -1.58807 0)
(-0.530157 -1.55165 0)
(-0.254181 -1.19886 0)
(-0.0566337 -0.490135 0)
(-0.02651 0.376153 0)
(-0.112929 0.871686 0)
(-0.235529 1.14268 0)
(-0.346373 1.24968 0)
(-0.429559 1.24749 0)
(-0.487149 1.17418 0)
(-0.525718 1.05281 0)
(-0.552955 0.895429 0)
(-0.576407 0.706724 0)
(-0.602651 0.486841 0)
(-0.636693 0.233531 0)
(-0.681167 -0.0560388 0)
(-0.734987 -0.383143 0)
(-0.791204 -0.744013 0)
(-0.834295 -1.12354 0)
(-0.837914 -1.48454 0)
(-0.765758 -1.75264 0)
(-0.584736 -1.80351 0)
(-0.31265 -1.47487 0)
(-0.0789085 -0.643953 0)
(-0.0400151 0.447233 0)
(-0.146942 0.992813 0)
(-0.270712 1.25541 0)
(-0.355619 1.33165 0)
(-0.392895 1.297 0)
(-0.394247 1.19816 0)
(-0.373394 1.06085 0)
(-0.342961 0.897237 0)
(-0.314077 0.711087 0)
(-0.296281 0.5012 0)
(-0.297566 0.263501 0)
(-0.324112 -0.00763408 0)
(-0.379267 -0.318134 0)
(-0.461257 -0.671911 0)
(-0.559203 -1.06542 0)
(-0.647326 -1.47549 0)
(-0.67943 -1.83657 0)
(-0.595383 -2.00936 0)
(-0.370769 -1.76363 0)
(-0.10899 -0.838995 0)
(-0.0657338 0.549662 0)
(-0.204805 1.13053 0)
(-0.318445 1.34952 0)
(-0.351152 1.36714 0)
(-0.313363 1.28423 0)
(-0.232494 1.15378 0)
(-0.131023 1.00108 0)
(-0.0262478 0.836087 0)
(0.0681505 0.660362 0)
(0.140969 0.470976 0)
(0.182515 0.262402 0)
(0.184088 0.0272295 0)
(0.138285 -0.243713 0)
(0.0406123 -0.56092 0)
(-0.106494 -0.933443 0)
(-0.285295 -1.35867 0)
(-0.449595 -1.79563 0)
(-0.518008 -2.11387 0)
(-0.408007 -2.02802 0)
(-0.144311 -1.08143 0)
(-0.108581 0.712362 0)
(-0.286169 1.28118 0)
(-0.349087 1.39406 0)
(-0.276222 1.31853 0)
(-0.119819 1.1756 0)
(0.0729589 1.01474 0)
(0.272971 0.85437 0)
(0.461416 0.698544 0)
(0.625175 0.544909 0)
(0.754151 0.388405 0)
(0.839387 0.222585 0)
(0.871848 0.0396538 0)
(0.841941 -0.170403 0)
(0.739821 -0.421281 0)
(0.557771 -0.7315 0)
(0.298119 -1.12041 0)
(-0.00886627 -1.58628 0)
(-0.281565 -2.04414 0)
(-0.37621 -2.20171 0)
(-0.167871 -1.37454 0)
(-0.155493 0.978768 0)
(-0.340242 1.40091 0)
(-0.237251 1.30689 0)
(0.033403 1.11518 0)
(0.355095 0.924147 0)
(0.674995 0.754663 0)
(0.970115 0.608974 0)
(1.22856 0.482179 0)
(1.4435 0.367346 0)
(1.61 0.257702 0)
(1.72293 0.146888 0)
(1.77564 0.0283397 0)
(1.75919 -0.106025 0)
(1.66136 -0.268212 0)
(1.46626 -0.478325 0)
(1.15762 -0.769135 0)
(0.731768 -1.18112 0)
(0.228463 -1.71412 0)
(-0.173247 -2.16055 0)
(-0.118934 -1.67591 0)
(-0.0476039 1.26997 0)
(-0.0721301 1.31735 0)
(0.411542 0.969336 0)
(0.958519 0.709851 0)
(1.43003 0.529596 0)
(1.82385 0.398634 0)
(2.15012 0.301319 0)
(2.41519 0.226284 0)
(2.62383 0.164708 0)
(2.77907 0.110208 0)
(2.88138 0.0580726 0)
(2.92831 0.00432043 0)
(2.91414 -0.0552887 0)
(2.82837 -0.127386 0)
(2.65318 -0.224458 0)
(2.35965 -0.373415 0)
(1.90287 -0.630616 0)
(1.22531 -1.07965 0)
(0.453194 -1.68933 0)
(0.217682 -1.70265 0)
(1.4389 0.707516 0)
(1.83648 0.62686 0)
(2.56442 0.398468 0)
(3.13876 0.251797 0)
(3.51335 0.164349 0)
(3.77068 0.109498 0)
(3.95836 0.0740532 0)
(4.09682 0.0502762 0)
(4.19703 0.0331501 0)
(4.26546 0.019543 0)
(4.30516 0.00750477 0)
(4.31667 -0.0043034 0)
(4.29811 -0.0169593 0)
(4.24473 -0.032187 0)
(4.14671 -0.0532029 0)
(3.9829 -0.0880178 0)
(3.70406 -0.158412 0)
(3.17579 -0.31627 0)
(2.30061 -0.623005 0)
(1.66904 -0.780213 0)
)
;

boundaryField
{
    movingWall
    {
        type            fixedValue;
        value           uniform (5.0763 0 0);
    }
    fixedWalls
    {
        type            noSlip;
    }
    frontAndBack
    {
        type            empty;
    }
}


// ************************************************************************* //
