/*--------------------------------*- C++ -*----------------------------------*\
| =========                 |                                                 |
| \\      /  F ield         | OpenFOAM: The Open Source CFD Toolbox           |
|  \\    /   O peration     | Version:  2212                                  |
|   \\  /    A nd           | Website:  www.openfoam.com                      |
|    \\/     M anipulation  |                                                 |
\*---------------------------------------------------------------------------*/
FoamFile
{
    version     2.0;
    format      ascii;
    arch        "LSB;label=32;scalar=64";
    class       volVectorField;
    location    "0.4";
    object      U;
}
// * * * * * * * * * * * * * * * * * * * * * * * * * * * * * * * * * * * * * //

dimensions      [0 1 -1 0 0 0 0];

internalField   nonuniform List<vector> 
44
(
(0.000634761 0 0)
(0.00188783 0 0)
(0.00309216 0 0)
(0.00421717 0 0)
(0.00523492 0 0)
(0.00612084 0 0)
(0.00685421 0 0)
(0.00192079 0 0)
(0.00571245 0 0)
(0.0093562 0 0)
(0.0127593 0 0)
(0.0158373 0 0)
(0.0185159 0 0)
(0.0207327 0 0)
(0.00325697 0 0)
(0.00968571 0 0)
(0.0158621 0 0)
(0.0216285 0 0)
(0.0268415 0 0)
(0.0313756 0 0)
(0.0351261 0 0)
(0.00467876 0 0)
(0.0139126 0 0)
(0.0227804 0 0)
(0.0310544 0 0)
(0.0385283 0 0)
(0.0450236 0 0)
(0.0503918 0 0)
(0.00622482 0 0)
(0.0185073 0 0)
(0.0302958 0 0)
(0.0412845 0 0)
(0.0511994 0 0)
(0.0598053 0 0)
(0.0669089 0 0)
(0.00793874 0 0)
(0.0235983 0 0)
(0.0386151 0 0)
(0.0525942 0 0)
(0.0651862 0 0)
(0.0760976 0 0)
(0.0850876 0 0)
(0.0943199 0 0)
(0.10538 0 0)
)
;

boundaryField
{
    movingWall
    {
        type            fixedValue;
        value           nonuniform List<vector> 0();
    }
    fixedWalls
    {
        type            noSlip;
    }
    frontAndBack
    {
        type            empty;
    }
    procBoundary0to1
    {
        type            processor;
        value           nonuniform List<vector> 6((0.00741898 0 0) (0.0224395 0 0) (0.0380122 0 0) (0.0545194 0 0) (0.0723644 0 0) (0.0919801 0 0));
    }
    procBoundary0to3
    {
        type            processor;
        value           nonuniform List<vector> 8((0.00987193 0 0) (0.0293365 0 0) (0.047979 0 0) (0.0653006 0 0) (0.0808661 0 0) (0.0808661 0 0) (0.114955 0 0) (0.128294 0 0));
    }
    procBoundary0to4
    {
        type            processor;
        value           uniform (0.113843 0 0);
    }
}


// ************************************************************************* //
