/*--------------------------------*- C++ -*----------------------------------*\
  =========                 |
  \\      /  F ield         | OpenFOAM: The Open Source CFD Toolbox
   \\    /   O peration     | Website:  https://openfoam.org
    \\  /    A nd           | Version:  9
     \\/     M anipulation  |
\*---------------------------------------------------------------------------*/
FoamFile
{
    format      ascii;
    class       volVectorField;
    location    "0.025";
    object      U;
}
// * * * * * * * * * * * * * * * * * * * * * * * * * * * * * * * * * * * * * //

dimensions      [0 1 -1 0 0 0 0];

internalField   nonuniform List<vector> 
40
(
(0.00290157 0.00380393 0)
(-0.00404467 0.00632541 0)
(-0.0109396 0.00385638 0)
(-0.0205549 0.00335466 0)
(-0.0274109 0.00288396 0)
(0.00137261 0.0030753 0)
(-0.00743179 0.0157146 0)
(-0.025628 0.0151049 0)
(-0.0441188 0.014758 0)
(-0.0609355 0.0135909 0)
(-0.00355642 0.0113708 0)
(-0.0176723 0.0306244 0)
(-0.0403139 0.0355611 0)
(-0.0649472 0.035673 0)
(-0.0879349 0.0333555 0)
(-0.00530669 0.0209652 0)
(-0.0232133 0.0523006 0)
(-0.0511713 0.0617609 0)
(-0.0811197 0.0622681 0)
(-0.108964 0.0583114 0)
(-0.00625429 0.0352186 0)
(-0.026718 0.0791108 0)
(-0.0586806 0.0930738 0)
(-0.0927135 0.0937247 0)
(-0.124336 0.0876693 0)
(-0.0068251 0.0507634 0)
(-0.0290582 0.109017 0)
(-0.0639604 0.128012 0)
(-0.100893 0.128809 0)
(-0.135249 0.12058 0)
(-0.00717382 0.0669922 0)
(-0.0308047 0.140878 0)
(-0.0681254 0.165072 0)
(-0.107335 0.166083 0)
(-0.143983 0.155986 0)
(-0.00760068 0.0836605 0)
(-0.0332811 0.17389 0)
(-0.0738104 0.203545 0)
(-0.116125 0.204519 0)
(-0.156901 0.192864 0)
)
;

boundaryField
{
    movingWall
    {
        type            fixedValue;
        value           nonuniform List<vector> 0();
    }
    fixedWalls
    {
        type            noSlip;
    }
    frontAndBack
    {
        type            empty;
    }
    procBoundary0to1
    {
        type            processor;
        value           nonuniform List<vector> 5((-0.00905035 0.102502 0) (-0.0389005 0.211658 0) (-0.0849288 0.246498 0) (-0.134373 0.248918 0) (-0.183305 0.237357 0));
    }
    procBoundary0to2
    {
        type            processor;
        value           nonuniform List<vector> 8((-0.0340077 0.00265629 0) (-0.076746 0.0126313 0) (-0.10946 0.0307592 0) (-0.13499 0.0534861 0) (-0.154074 0.0801723 0) (-0.168103 0.110426 0) (-0.179956 0.143355 0) (-0.197876 0.178981 0));
    }
}


// ************************************************************************* //
