/*--------------------------------*- C++ -*----------------------------------*\
  =========                 |
  \\      /  F ield         | OpenFOAM: The Open Source CFD Toolbox
   \\    /   O peration     | Website:  https://openfoam.org
    \\  /    A nd           | Version:  9
     \\/     M anipulation  |
\*---------------------------------------------------------------------------*/
FoamFile
{
    format      ascii;
    class       volVectorField;
    location    "0.065";
    object      U;
}
// * * * * * * * * * * * * * * * * * * * * * * * * * * * * * * * * * * * * * //

dimensions      [0 1 -1 0 0 0 0];

internalField   nonuniform List<vector> 
40
(
(-0.0818484 7.34342e-05 0)
(-0.0796034 -0.0015519 0)
(-0.0732614 -0.00307797 0)
(-0.0632204 -0.0044429 0)
(-0.202995 -0.000289711 0)
(-0.197261 -0.00808591 0)
(-0.182156 -0.0153861 0)
(-0.1589 -0.02172 0)
(-0.304098 -0.00204683 0)
(-0.29569 -0.0211104 0)
(-0.27404 -0.038918 0)
(-0.240688 -0.0542301 0)
(-0.395394 -0.00458759 0)
(-0.385291 -0.0383407 0)
(-0.358586 -0.0700627 0)
(-0.316881 -0.0973835 0)
(-0.480981 -0.0069305 0)
(-0.470549 -0.0582854 0)
(-0.440356 -0.106988 0)
(-0.391611 -0.149232 0)
(-0.563534 -0.00761573 0)
(-0.554581 -0.0793189 0)
(-0.522775 -0.148143 0)
(-0.469097 -0.208864 0)
(-0.643699 -0.00484072 0)
(-0.638478 -0.0993201 0)
(-0.607531 -0.191559 0)
(-0.551094 -0.2746 0)
(-0.720152 0.00304885 0)
(-0.720139 -0.115945 0)
(-0.692774 -0.234464 0)
(-0.636646 -0.343934 0)
(-0.788759 0.0170767 0)
(-0.794689 -0.12743 0)
(-0.772962 -0.273761 0)
(-0.720839 -0.413208 0)
(-0.84272 0.0369 0)
(-0.855392 -0.132351 0)
(-0.841193 -0.306933 0)
(-0.795875 -0.477919 0)
)
;

boundaryField
{
    movingWall
    {
        type            fixedValue;
        value           nonuniform List<vector> 0();
    }
    fixedWalls
    {
        type            noSlip;
    }
    frontAndBack
    {
        type            empty;
    }
    procBoundary5to2
    {
        type            processor;
        value           nonuniform List<vector> 8((-0.0798689 0.00167644 0) (-0.199371 0.0073521 0) (-0.29968 0.0166782 0) (-0.389791 0.0285643 0) (-0.473175 0.0433121 0) (-0.551995 0.0619924 0) (-0.627057 0.0858716 0) (-0.697261 0.116106 0));
    }
    procBoundary5to3
    {
        type            processor;
        value           nonuniform List<vector> 2((-0.759865 0.152693 0) (-0.809423 0.194203 0));
    }
    procBoundary5to6
    {
        type            processor;
        value           nonuniform List<vector> 4((-0.871636 0.0618503 0) (-0.890634 -0.129774 0) (-0.885678 -0.331502 0) (-0.851731 -0.535011 0));
    }
    procBoundary5to7
    {
        type            processor;
        value           nonuniform List<vector> 6((-0.0502073 -0.0054238 0) (-0.129314 -0.0262114 0) (-0.198373 -0.0650872 0) (-0.263478 -0.116993 0) (-0.328363 -0.180365 0) (-0.396793 -0.254462 0));
    }
    procBoundary5to8
    {
        type            processor;
        value           nonuniform List<vector> 4((-0.472047 -0.3392 0) (-0.55366 -0.432455 0) (-0.637577 -0.530671 0) (-0.717681 -0.629549 0));
    }
}


// ************************************************************************* //
