/*--------------------------------*- C++ -*----------------------------------*\
  =========                 |
  \\      /  F ield         | OpenFOAM: The Open Source CFD Toolbox
   \\    /   O peration     | Website:  https://openfoam.org
    \\  /    A nd           | Version:  9
     \\/     M anipulation  |
\*---------------------------------------------------------------------------*/
FoamFile
{
    format      ascii;
    class       volVectorField;
    location    "0.095";
    object      U;
}
// * * * * * * * * * * * * * * * * * * * * * * * * * * * * * * * * * * * * * //

dimensions      [0 1 -1 0 0 0 0];

internalField   nonuniform List<vector> 
40
(
(-0.369794 1.21634 0)
(-0.408115 1.16431 0)
(-0.412296 1.05945 0)
(-0.395464 0.921769 0)
(-0.367957 0.761676 0)
(-0.348135 1.25117 0)
(-0.316629 1.15521 0)
(-0.247163 1.02198 0)
(-0.159498 0.869961 0)
(-0.0700853 0.708291 0)
(0.0104222 0.538599 0)
(0.0732426 0.361416 0)
(-0.24152 1.20528 0)
(-0.100147 1.05758 0)
(0.0699174 0.90032 0)
(0.243261 0.744161 0)
(0.403401 0.591935 0)
(0.539497 0.443106 0)
(0.643653 0.29392 0)
(0.0951441 1.01775 0)
(0.384951 0.833445 0)
(0.669143 0.674456 0)
(0.925393 0.535724 0)
(1.14383 0.412753 0)
(1.31997 0.299953 0)
(1.45006 0.192593 0)
(0.965457 0.649511 0)
(1.38884 0.484224 0)
(1.74341 0.365383 0)
(2.03132 0.274681 0)
(2.25944 0.201559 0)
(2.43216 0.139614 0)
(2.55177 0.0838474 0)
(3.00161 0.216235 0)
(3.33528 0.148636 0)
(3.57244 0.106229 0)
(3.74622 0.0766457 0)
(3.87204 0.0539732 0)
(3.96002 0.0358007 0)
(4.01457 0.0204726 0)
)
;

boundaryField
{
    movingWall
    {
        type            fixedValue;
        value           uniform (4.88627 0 0);
    }
    fixedWalls
    {
        type            noSlip;
    }
    frontAndBack
    {
        type            empty;
    }
    procBoundary4to1
    {
        type            processor;
        value           nonuniform List<vector> 6((-0.288063 1.18491 0) (-0.318808 1.27597 0) (-0.314852 1.31227 0) (-0.16109 1.22083 0) (0.463249 0.893806 0) (2.46898 0.335811 0));
    }
    procBoundary4to3
    {
        type            processor;
        value           nonuniform List<vector> 8((-0.364281 1.13691 0) (-0.444365 1.11621 0) (-0.498953 1.03666 0) (-0.533393 0.915326 0) (-0.554845 0.763183 0) (-0.340427 0.584629 0) (-0.340427 0.584629 0) (-0.32074 0.391615 0));
    }
    procBoundary4to6
    {
        type            processor;
        value           nonuniform List<vector> 5((0.110578 0.172572 0) (0.710635 0.139471 0) (1.53227 0.0854581 0) (2.62191 0.0298954 0) (4.04006 0.00590586 0));
    }
}


// ************************************************************************* //
