/*--------------------------------*- C++ -*----------------------------------*\
  =========                 |
  \\      /  F ield         | OpenFOAM: The Open Source CFD Toolbox
   \\    /   O peration     | Website:  https://openfoam.org
    \\  /    A nd           | Version:  9
     \\/     M anipulation  |
\*---------------------------------------------------------------------------*/
FoamFile
{
    format      ascii;
    class       surfaceScalarField;
    location    "0.01";
    object      phi;
}
// * * * * * * * * * * * * * * * * * * * * * * * * * * * * * * * * * * * * * //

dimensions      [0 3 -1 0 0 0 0];

internalField   nonuniform List<scalar> 
67
(
-1.45419e-06
2.35727e-06
-1.57883e-06
1.89821e-06
-1.62389e-06
1.44011e-06
-1.62648e-06
1.03629e-06
6.93182e-07
-1.47956e-06
2.48421e-06
-1.47462e-06
1.89327e-06
-1.40729e-06
1.37277e-06
-1.32435e-06
9.53354e-07
-1.25279e-06
6.21625e-07
-1.20588e-06
3.514e-07
1.17241e-07
-1.13179e-06
2.35986e-06
-9.14562e-07
1.67604e-06
-6.90746e-07
1.14896e-06
-5.01708e-07
7.64315e-07
-3.63055e-07
4.82972e-07
-2.79718e-07
2.68063e-07
8.9037e-08
5.77219e-08
1.82824e-06
5.48874e-07
1.18489e-06
9.41271e-07
7.56563e-07
1.22841e-06
4.77172e-07
1.42088e-06
2.9051e-07
1.5313e-06
1.57638e-07
5.20489e-08
2.9101e-06
8.54323e-07
3.60578e-06
4.89207e-07
4.0782e-06
2.84143e-07
4.38834e-06
1.67031e-07
4.58189e-06
9.69641e-08
4.68836e-06
5.1167e-08
1.68298e-08
8.38096e-06
8.87017e-06
9.15431e-06
9.32134e-06
9.4183e-06
9.46947e-06
)
;

boundaryField
{
    movingWall
    {
        type            calculated;
        value           uniform 0;
    }
    fixedWalls
    {
        type            calculated;
        value           nonuniform List<scalar> 0();
    }
    frontAndBack
    {
        type            empty;
        value           nonuniform List<scalar> 0();
    }
    procBoundary4to1
    {
        type            processor;
        value           nonuniform List<scalar> 6(1.20617e-06 1.35262e-06 1.25614e-06 4.73898e-07 -1.93618e-06 -7.52664e-06);
    }
    procBoundary4to3
    {
        type            processor;
        value           nonuniform List<scalar> 8(-2.10926e-06 -1.77356e-06 -1.39506e-06 -1.0337e-06 -7.06511e-07 -1.61315e-06 -3.98309e-07 -1.33203e-07);
    }
    procBoundary4to6
    {
        type            processor;
        value           nonuniform List<scalar> 5(-1.18992e-06 -2.51514e-07 1.56829e-06 4.72358e-06 9.4863e-06);
    }
}


// ************************************************************************* //
