/*--------------------------------*- C++ -*----------------------------------*\
  =========                 |
  \\      /  F ield         | OpenFOAM: The Open Source CFD Toolbox
   \\    /   O peration     | Website:  https://openfoam.org
    \\  /    A nd           | Version:  9
     \\/     M anipulation  |
\*---------------------------------------------------------------------------*/
FoamFile
{
    format      ascii;
    class       volScalarField;
    location    "0.09";
    object      p;
}
// * * * * * * * * * * * * * * * * * * * * * * * * * * * * * * * * * * * * * //

dimensions      [0 2 -2 0 0 0 0];

internalField   nonuniform List<scalar> 
40
(
-0.283602
-0.292278
-0.304045
-0.315282
-0.319551
-0.302112
-0.319774
-0.339714
-0.359793
-0.376241
-0.274459
-0.303791
-0.333457
-0.36504
-0.396198
-0.425547
-0.452553
-0.289348
-0.334778
-0.382085
-0.430836
-0.4761
-0.516978
-0.555559
-0.304984
-0.379557
-0.445989
-0.51424
-0.576254
-0.630834
-0.6799
-0.316944
-0.425574
-0.516416
-0.605472
-0.682431
-0.756763
-0.818907
-0.868903
-0.957489
)
;

boundaryField
{
    movingWall
    {
        type            zeroGradient;
    }
    fixedWalls
    {
        type            zeroGradient;
    }
    frontAndBack
    {
        type            empty;
    }
    procBoundary3to1
    {
        type            processor;
        value           nonuniform List<scalar> 8(-0.248247 -0.257032 -0.269099 -0.269099 -0.24617 -0.235163 -0.218439 -0.202443);
    }
    procBoundary3to2
    {
        type            processor;
        value           nonuniform List<scalar> 5(-0.246471 -0.261246 -0.273028 -0.279902 -0.276823);
    }
    procBoundary3to4
    {
        type            processor;
        value           nonuniform List<scalar> 8(-0.306417 -0.416184 -0.537614 -0.657384 -0.760465 -0.760465 -0.953828 -1.09735);
    }
    procBoundary3to5
    {
        type            processor;
        value           nonuniform List<scalar> 2(-0.318628 -0.384378);
    }
    procBoundary3to6
    {
        type            processor;
        value           nonuniform List<scalar> 5(-0.466745 -0.57263 -0.704035 -0.85504 -1.01806);
    }
}


// ************************************************************************* //
