/*--------------------------------*- C++ -*----------------------------------*\
  =========                 |
  \\      /  F ield         | OpenFOAM: The Open Source CFD Toolbox
   \\    /   O peration     | Website:  https://openfoam.org
    \\  /    A nd           | Version:  9
     \\/     M anipulation  |
\*---------------------------------------------------------------------------*/
FoamFile
{
    format      ascii;
    class       volVectorField;
    location    "0.065";
    object      U;
}
// * * * * * * * * * * * * * * * * * * * * * * * * * * * * * * * * * * * * * //

dimensions      [0 1 -1 0 0 0 0];

internalField   nonuniform List<vector> 
40
(
(-0.472047 -0.3392 0)
(-0.374415 -0.374412 0)
(-0.55366 -0.432455 0)
(-0.446368 -0.485265 0)
(-0.321808 -0.488336 0)
(-0.193757 -0.434405 0)
(-0.0816341 -0.321709 0)
(-0.0174354 -0.132802 0)
(-0.637577 -0.530671 0)
(-0.524389 -0.607404 0)
(-0.3863 -0.623553 0)
(-0.237838 -0.565754 0)
(-0.102601 -0.427137 0)
(-0.0223768 -0.180217 0)
(-0.717681 -0.629549 0)
(-0.603756 -0.737281 0)
(-0.456454 -0.774827 0)
(-0.28924 -0.719922 0)
(-0.128931 -0.556363 0)
(-0.0290804 -0.240471 0)
(-0.784165 -0.723723 0)
(-0.677052 -0.869803 0)
(-0.527661 -0.938281 0)
(-0.345965 -0.896077 0)
(-0.160554 -0.712048 0)
(-0.0377292 -0.317 0)
(-0.820637 -0.805675 0)
(-0.730362 -0.994205 0)
(-0.590328 -1.10575 0)
(-0.40344 -1.09006 0)
(-0.196667 -0.895051 0)
(-0.0482509 -0.412298 0)
(-0.803474 -0.863105 0)
(-0.743793 -1.09984 0)
(-0.629252 -1.26204 0)
(-0.453571 -1.29157 0)
(-0.235385 -1.10282 0)
(-0.0610836 -0.52987 0)
(-0.704696 -0.887682 0)
(-0.688429 -1.16584 0)
)
;

boundaryField
{
    movingWall
    {
        type            fixedValue;
        value           nonuniform List<vector> 0();
    }
    fixedWalls
    {
        type            noSlip;
    }
    frontAndBack
    {
        type            empty;
    }
    procBoundary8to5
    {
        type            processor;
        value           nonuniform List<vector> 4((-0.551094 -0.2746 0) (-0.636646 -0.343934 0) (-0.720839 -0.413208 0) (-0.795875 -0.477919 0));
    }
    procBoundary8to6
    {
        type            processor;
        value           nonuniform List<vector> 4((-0.851731 -0.535011 0) (-0.869832 -0.579072 0) (-0.826265 -0.602473 0) (-0.692583 -0.599847 0));
    }
    procBoundary8to7
    {
        type            processor;
        value           nonuniform List<vector> 7((-0.396793 -0.254462 0) (-0.310633 -0.277517 0) (-0.265357 -0.370903 0) (-0.265357 -0.370903 0) (-0.157314 -0.32488 0) (-0.0651194 -0.236466 0) (-0.0137709 -0.0953126 0));
    }
    procBoundary8to9
    {
        type            processor;
        value           nonuniform List<vector> 7((-0.622137 -1.39146 0) (-0.483755 -1.48597 0) (-0.274048 -1.3306 0) (-0.0765851 -0.673642 0) (-0.490319 -0.86606 0) (-0.622137 -1.39146 0) (-0.534236 -1.17818 0));
    }
}


// ************************************************************************* //
