/*--------------------------------*- C++ -*----------------------------------*\
  =========                 |
  \\      /  F ield         | OpenFOAM: The Open Source CFD Toolbox
   \\    /   O peration     | Website:  https://openfoam.org
    \\  /    A nd           | Version:  8
     \\/     M anipulation  |
\*---------------------------------------------------------------------------*/
FoamFile
{
    version     2.0;
    format      ascii;
    class       volScalarField;
    location    "1";
    object      p;
}
// * * * * * * * * * * * * * * * * * * * * * * * * * * * * * * * * * * * * * //

dimensions      [0 2 -2 0 0 0 0];

internalField   nonuniform List<scalar> 
400
(
-0.099183
-0.198174
-0.251323
-0.276702
-0.280337
-0.268123
-0.243182
-0.206104
-0.159532
-0.106459
-0.049116
0.0103112
0.0690567
0.123978
0.172202
0.21168
0.241418
0.261402
0.272412
0.276074
-0.198562
-0.239038
-0.268568
-0.283719
-0.282704
-0.26785
-0.241508
-0.204371
-0.158624
-0.106625
-0.0501911
0.00865381
0.0671293
0.12196
0.17008
0.209267
0.238451
0.257561
0.266958
0.266606
-0.250261
-0.26847
-0.280276
-0.284679
-0.277351
-0.260002
-0.233932
-0.198836
-0.156257
-0.107977
-0.0551431
0.000784704
0.0572209
0.110662
0.157561
0.195269
0.222604
0.239708
0.247149
0.245396
-0.273269
-0.280768
-0.280773
-0.276579
-0.263954
-0.244826
-0.220078
-0.188582
-0.151253
-0.109256
-0.0628269
-0.0124864
0.0396775
0.0900281
0.134465
0.169779
0.194535
0.209
0.214086
0.210832
-0.278096
-0.279128
-0.27168
-0.261087
-0.244128
-0.223579
-0.200494
-0.173174
-0.142051
-0.107969
-0.0703739
-0.0286114
0.01615
0.0605267
0.100139
0.13139
0.152612
0.163983
0.166716
0.162244
-0.270409
-0.267703
-0.255794
-0.241113
-0.221175
-0.199799
-0.178699
-0.15581
-0.13106
-0.105494
-0.0783573
-0.0478759
-0.0138099
0.0214021
0.0536781
0.0793257
0.0964021
0.104697
0.105666
0.100919
-0.255835
-0.251898
-0.238329
-0.222284
-0.201314
-0.180025
-0.161234
-0.142823
-0.123728
-0.10565
-0.0887744
-0.0708682
-0.0500164
-0.0268348
-0.00417115
0.0147495
0.027713
0.033704
0.0341195
0.0303983
-0.239704
-0.236863
-0.22457
-0.210358
-0.19105
-0.171327
-0.155378
-0.14199
-0.127938
-0.11526
-0.106417
-0.100126
-0.0931102
-0.0834223
-0.0715694
-0.0595204
-0.0496619
-0.0443298
-0.0428657
-0.0446182
-0.224446
-0.22496
-0.216954
-0.208278
-0.194508
-0.179168
-0.16722
-0.160778
-0.153003
-0.144382
-0.140248
-0.142183
-0.146792
-0.149497
-0.147601
-0.14097
-0.13194
-0.124735
-0.120558
-0.120547
-0.208289
-0.213849
-0.212812
-0.213491
-0.210383
-0.204602
-0.198729
-0.202533
-0.20542
-0.202825
-0.201558
-0.207467
-0.219062
-0.230191
-0.234887
-0.230332
-0.218472
-0.205891
-0.197183
-0.196765
-0.185095
-0.19624
-0.204702
-0.218472
-0.231793
-0.244167
-0.24814
-0.265507
-0.28538
-0.295045
-0.298976
-0.3067
-0.320388
-0.334337
-0.340426
-0.333192
-0.313737
-0.291059
-0.274724
-0.274518
-0.145697
-0.162284
-0.184374
-0.216191
-0.251012
-0.293123
-0.314472
-0.347661
-0.388603
-0.417632
-0.432789
-0.44411
-0.457358
-0.469233
-0.471589
-0.457167
-0.425383
-0.386588
-0.356067
-0.352037
-0.0812592
-0.104299
-0.148084
-0.207379
-0.266899
-0.347419
-0.398235
-0.450682
-0.511929
-0.562607
-0.594054
-0.612663
-0.625226
-0.631721
-0.626796
-0.603166
-0.556739
-0.49565
-0.439061
-0.418683
0.0129914
-0.0209359
-0.0965423
-0.197968
-0.286033
-0.398647
-0.487351
-0.567407
-0.649567
-0.721343
-0.7717
-0.799435
-0.807417
-0.801403
-0.784338
-0.75193
-0.69353
-0.607742
-0.510173
-0.452815
0.13845
0.0835947
-0.0259517
-0.174985
-0.303491
-0.426
-0.541677
-0.658164
-0.77443
-0.877993
-0.957507
-0.999915
-0.98376
-0.941516
-0.896689
-0.852326
-0.788421
-0.684956
-0.539708
-0.425789
0.302286
0.209228
0.0779419
-0.0842821
-0.265922
-0.397423
-0.527714
-0.68992
-0.87544
-1.05224
-1.18719
-1.24042
-1.18301
-1.05177
-0.917991
-0.826489
-0.753776
-0.651964
-0.480456
-0.310087
0.525171
0.382689
0.23922
0.116671
-0.0926779
-0.292277
-0.515512
-0.782965
-1.07179
-1.33375
-1.51636
-1.57706
-1.4967
-1.26402
-0.954973
-0.669004
-0.483296
-0.390264
-0.265424
-0.0889097
0.837371
0.69014
0.5435
0.366772
0.075216
-0.269948
-0.665352
-1.06758
-1.41621
-1.67893
-1.84494
-1.90879
-1.85991
-1.66515
-1.27432
-0.695532
-0.132192
0.200083
0.247535
0.314932
1.45449
1.25545
0.951684
0.48196
-0.106519
-0.645522
-1.08647
-1.44592
-1.73087
-1.94204
-2.08125
-2.14835
-2.13385
-2.00947
-1.72003
-1.17938
-0.310936
0.604526
1.10269
1.1993
2.09988
1.62298
0.830231
-0.00152019
-0.585011
-1.00279
-1.34187
-1.62778
-1.86076
-2.03866
-2.16134
-2.22752
-2.22867
-2.1444
-1.94166
-1.57539
-0.944699
0.126339
1.46161
2.18945
)
;

boundaryField
{
    movingWall
    {
        type            zeroGradient;
    }
    fixedWalls
    {
        type            zeroGradient;
    }
    frontAndBack
    {
        type            empty;
    }
}


// ************************************************************************* //
