/*--------------------------------*- C++ -*----------------------------------*\
  =========                 |
  \\      /  F ield         | OpenFOAM: The Open Source CFD Toolbox
   \\    /   O peration     | Website:  https://openfoam.org
    \\  /    A nd           | Version:  8
     \\/     M anipulation  |
\*---------------------------------------------------------------------------*/
FoamFile
{
    version     2.0;
    format      ascii;
    class       surfaceScalarField;
    location    "1";
    object      phi;
}
// * * * * * * * * * * * * * * * * * * * * * * * * * * * * * * * * * * * * * //

dimensions      [0 3 -1 0 0 0 0];

internalField   nonuniform List<scalar> 
760
(
6.40878e-08
-6.40601e-08
-1.3384e-07
1.97929e-07
-6.01335e-07
4.67499e-07
-1.24965e-06
6.48317e-07
-1.98604e-06
7.36381e-07
-2.72943e-06
7.43398e-07
-3.41095e-06
6.81519e-07
-3.97122e-06
5.60265e-07
-4.35855e-06
3.87331e-07
-4.53019e-06
1.71644e-07
-4.45692e-06
-7.32693e-08
-4.13004e-06
-3.26884e-07
-3.56868e-06
-5.61356e-07
-2.82502e-06
-7.4366e-07
-1.9845e-06
-8.40527e-07
-1.15882e-06
-8.25677e-07
-4.70571e-07
-6.8825e-07
-2.98258e-08
-4.40745e-07
1.02191e-07
-1.32014e-07
1.02194e-07
-1.96206e-07
1.32137e-07
-9.65988e-07
9.67719e-07
-2.25649e-06
1.758e-06
-3.90563e-06
2.29746e-06
-5.72739e-06
2.55815e-06
-7.54306e-06
2.55907e-06
-9.19118e-06
2.32963e-06
-1.05296e-05
1.89869e-06
-1.14371e-05
1.29487e-06
-1.18188e-05
5.5333e-07
-1.16159e-05
-2.76203e-07
-1.08186e-05
-1.12414e-06
-9.47903e-06
-1.90095e-06
-7.71821e-06
-2.50448e-06
-5.72399e-06
-2.83475e-06
-3.73407e-06
-2.8156e-06
-2.00243e-06
-2.4199e-06
-7.50094e-07
-1.69309e-06
-1.03259e-07
-7.78858e-07
-1.06254e-09
-5.06064e-07
6.38207e-07
-1.89213e-06
2.35378e-06
-3.96675e-06
3.83262e-06
-6.48953e-06
4.82024e-06
-9.20771e-06
5.27633e-06
-1.18792e-05
5.23054e-06
-1.42826e-05
4.73304e-06
-1.62217e-05
3.83778e-06
-1.75298e-05
2.60293e-06
-1.80779e-05
1.10148e-06
-1.7788e-05
-5.66142e-07
-1.66483e-05
-2.26382e-06
-1.47289e-05
-3.82035e-06
-1.21908e-05
-5.04256e-06
-9.28365e-06
-5.74191e-06
-6.32559e-06
-5.77366e-06
-3.66237e-06
-5.08312e-06
-1.60736e-06
-3.74809e-06
-3.71297e-07
-2.01492e-06
-3.72358e-07
-7.8934e-07
1.42755e-06
-2.76814e-06
4.33258e-06
-5.58693e-06
6.65141e-06
-8.91155e-06
8.14486e-06
-1.24267e-05
8.79144e-06
-1.58425e-05
8.64635e-06
-1.88976e-05
7.78817e-06
-2.13607e-05
6.30088e-06
-2.30345e-05
4.27671e-06
-2.37645e-05
1.83149e-06
-2.34531e-05
-8.77534e-07
-2.20773e-05
-3.63962e-06
-1.9707e-05
-6.19059e-06
-1.65193e-05
-8.23027e-06
-1.2801e-05
-9.46022e-06
-8.93286e-06
-9.64183e-06
-5.34844e-06
-8.66754e-06
-2.46897e-06
-6.62755e-06
-6.26145e-07
-3.85775e-06
-9.98502e-07
-1.0417e-06
2.46925e-06
-3.56945e-06
6.86032e-06
-7.08226e-06
1.01642e-05
-1.11492e-05
1.22118e-05
-1.53948e-05
1.30371e-05
-1.9491e-05
1.27425e-05
-2.31489e-05
1.14461e-05
-2.61148e-05
9.26679e-06
-2.81699e-05
6.33175e-06
-2.91369e-05
2.79848e-06
-2.88936e-05
-1.12075e-06
-2.73924e-05
-5.14083e-06
-2.4683e-05
-8.90004e-06
-2.09352e-05
-1.1978e-05
-1.64537e-05
-1.39418e-05
-1.16731e-05
-1.44224e-05
-7.12393e-06
-1.32167e-05
-3.36231e-06
-1.03892e-05
-8.76969e-07
-6.34309e-06
-1.87547e-06
-1.26665e-06
3.7359e-06
-4.29376e-06
9.88744e-06
-8.44303e-06
1.43135e-05
-1.31918e-05
1.69605e-05
-1.81099e-05
1.79552e-05
-2.28389e-05
1.74715e-05
-2.70731e-05
1.56804e-05
-3.05463e-05
1.27399e-05
-3.30247e-05
8.8102e-06
-3.43096e-05
4.08336e-06
-3.42477e-05
-1.18268e-06
-3.27515e-05
-6.63701e-06
-2.98285e-05
-1.18231e-05
-2.56155e-05
-1.6191e-05
-2.0412e-05
-1.91453e-05
-1.46956e-05
-2.01387e-05
-9.10304e-06
-1.88093e-05
-4.35812e-06
-1.51341e-05
-1.15169e-06
-9.54952e-06
-3.02716e-06
-1.46651e-06
5.2024e-06
-4.94037e-06
1.33613e-05
-9.66011e-06
1.90332e-05
-1.50198e-05
2.23202e-05
-2.05425e-05
2.34779e-05
-2.5849e-05
2.2778e-05
-3.06278e-05
2.04592e-05
-3.46105e-05
1.67227e-05
-3.75568e-05
1.17565e-05
-3.92492e-05
5.77568e-06
-3.94988e-05
-9.33024e-07
-3.81653e-05
-7.97057e-06
-3.51904e-05
-1.4798e-05
-3.06471e-05
-2.07342e-05
-2.47967e-05
-2.49957e-05
-1.81365e-05
-2.67989e-05
-1.14093e-05
-2.55365e-05
-5.54005e-06
-2.10033e-05
-1.48265e-06
-1.36069e-05
-4.50981e-06
-1.64193e-06
6.84434e-06
-5.50629e-06
1.72257e-05
-1.0719e-05
2.42459e-05
-1.6599e-05
2.82002e-05
-2.2632e-05
2.95109e-05
-2.84301e-05
2.85761e-05
-3.36891e-05
2.57181e-05
-3.81524e-05
2.1186e-05
-4.15853e-05
1.51893e-05
-4.37596e-05
7.95006e-06
-4.44532e-05
-2.39429e-07
-4.34643e-05
-8.9595e-06
-4.06481e-05
-1.76142e-05
-3.59782e-05
-2.54041e-05
-2.96312e-05
-3.13427e-05
-2.2079e-05
-3.43512e-05
-1.41487e-05
-3.34668e-05
-6.99168e-06
-2.81604e-05
-1.90387e-06
-1.86947e-05
-6.41367e-06
-1.79372e-06
8.63806e-06
-5.98949e-06
2.14214e-05
-1.16036e-05
2.986e-05
-1.78847e-05
3.44813e-05
-2.42915e-05
3.59177e-05
-3.04418e-05
3.47264e-05
-3.60563e-05
3.13326e-05
-4.09086e-05
2.60383e-05
-4.47877e-05
1.90685e-05
-4.74721e-05
1.06344e-05
-4.87174e-05
1.00592e-06
-4.82633e-05
-9.4136e-06
-4.5865e-05
-2.00126e-05
-4.1361e-05
-2.9908e-05
-3.47843e-05
-3.79194e-05
-2.65073e-05
-4.26281e-05
-1.73826e-05
-4.25915e-05
-8.78735e-06
-3.67556e-05
-2.45099e-06
-2.50311e-05
-8.86466e-06
-1.92714e-06
1.05652e-05
-6.3983e-06
2.58926e-05
-1.23086e-05
3.57703e-05
-1.88352e-05
4.1008e-05
-2.54211e-05
4.25036e-05
-3.17086e-05
4.10139e-05
-3.74652e-05
3.70892e-05
-4.25193e-05
3.10924e-05
-4.67092e-05
2.32584e-05
-4.98458e-05
1.37711e-05
-5.16881e-05
2.84814e-06
-5.19347e-05
-9.167e-06
-5.02431e-05
-2.17041e-05
-4.62914e-05
-3.38597e-05
-3.99034e-05
-4.43075e-05
-3.12487e-05
-5.12828e-05
-2.10921e-05
-5.27481e-05
-1.09817e-05
-4.6866e-05
-3.16269e-06
-3.28501e-05
-1.20274e-05
-2.05919e-06
1.26244e-05
-6.7666e-06
3.06e-05
-1.28581e-05
4.18618e-05
-1.94307e-05
4.75805e-05
-2.59264e-05
4.89994e-05
-3.20382e-05
4.71256e-05
-3.76092e-05
4.26602e-05
-4.25521e-05
3.60353e-05
-4.67867e-05
2.7493e-05
-5.01914e-05
1.71758e-05
-5.25663e-05
5.22306e-06
-5.3607e-05
-8.12634e-06
-5.28997e-05
-2.24114e-05
-4.99592e-05
-3.68002e-05
-4.43458e-05
-4.99209e-05
-3.59025e-05
-5.97261e-05
-2.51283e-05
-6.35224e-05
-1.35925e-05
-5.84018e-05
-4.08289e-06
-4.23597e-05
-1.61102e-05
-2.23017e-06
1.48546e-05
-7.17478e-06
3.55446e-05
-1.33275e-05
4.80145e-05
-1.96907e-05
5.39437e-05
-2.57331e-05
5.50418e-05
-3.12367e-05
5.26293e-05
-3.61586e-05
4.7582e-05
-4.05304e-05
4.04071e-05
-4.43879e-05
3.13505e-05
-4.77169e-05
2.05048e-05
-5.04064e-05
7.91259e-06
-5.22046e-05
-6.32814e-06
-5.26828e-05
-2.19332e-05
-5.12292e-05
-3.82538e-05
-4.71218e-05
-5.40283e-05
-3.97598e-05
-6.70881e-05
-2.91402e-05
-7.4142e-05
-1.65681e-05
-7.09739e-05
-5.26256e-06
-5.36652e-05
-2.13728e-05
-2.52237e-06
1.73769e-05
-7.77536e-06
4.07976e-05
-1.38584e-05
5.40975e-05
-1.96742e-05
5.97596e-05
-2.47753e-05
6.01429e-05
-2.90955e-05
5.69494e-05
-3.27552e-05
5.12417e-05
-3.59429e-05
4.35949e-05
-3.88429e-05
3.42504e-05
-4.15834e-05
2.32454e-05
-4.41901e-05
1.05193e-05
-4.65295e-05
-3.98882e-06
-4.82416e-05
-2.02211e-05
-4.86748e-05
-3.78206e-05
-4.68726e-05
-5.58305e-05
-4.17271e-05
-7.22336e-05
-3.24799e-05
-8.33891e-05
-1.97304e-05
-8.37235e-05
-6.7581e-06
-6.66375e-05
-2.81309e-05
-3.08999e-06
2.04669e-05
-8.81543e-06
4.65231e-05
-1.4642e-05
5.9924e-05
-1.94216e-05
6.45392e-05
-2.29122e-05
6.36335e-05
-2.52995e-05
5.93367e-05
-2.69314e-05
5.28736e-05
-2.81887e-05
4.48523e-05
-2.94243e-05
3.5486e-05
-3.09284e-05
2.47495e-05
-3.28941e-05
1.2485e-05
-3.53636e-05
-1.5193e-06
-3.81419e-05
-1.74427e-05
-4.06709e-05
-3.52917e-05
-4.19001e-05
-5.46014e-05
-4.02695e-05
-7.38641e-05
-3.40815e-05
-8.95771e-05
-2.26708e-05
-9.51342e-05
-8.61379e-06
-8.06945e-05
-3.67447e-05
-4.20026e-06
2.46672e-05
-1.0621e-05
5.29438e-05
-1.57955e-05
6.50985e-05
-1.87434e-05
6.7487e-05
-1.9671e-05
6.45611e-05
-1.91647e-05
5.88304e-05
-1.78689e-05
5.15778e-05
-1.63767e-05
4.336e-05
-1.52035e-05
3.43128e-05
-1.47875e-05
2.43335e-05
-1.54847e-05
1.31822e-05
-1.75368e-05
5.32741e-07
-2.0989e-05
-1.39905e-05
-2.5532e-05
-3.07487e-05
-3.02548e-05
-4.98785e-05
-3.33832e-05
-7.07357e-05
-3.23036e-05
-9.06567e-05
-2.45547e-05
-0.000102883
-1.07876e-05
-9.44617e-05
-4.75323e-05
-6.24657e-06
3.09138e-05
-1.3405e-05
6.01022e-05
-1.69236e-05
6.86172e-05
-1.66374e-05
6.72008e-05
-1.36273e-05
6.15511e-05
-9.05122e-06
5.42543e-05
-3.88366e-06
4.64102e-05
1.10199e-06
3.83744e-05
5.28626e-06
3.01286e-05
8.14734e-06
2.14724e-05
9.22454e-06
1.2105e-05
8.11209e-06
1.64519e-06
4.50833e-06
-1.03867e-05
-1.64576e-06
-2.45946e-05
-9.86095e-06
-4.16633e-05
-1.85927e-05
-6.2004e-05
-2.47108e-05
-8.45386e-05
-2.37492e-05
-0.000103845
-1.2914e-05
-0.000105297
-6.04463e-05
-9.56121e-06
4.0475e-05
-1.64263e-05
6.69674e-05
-1.58211e-05
6.8012e-05
-9.88915e-06
6.12688e-05
-1.12553e-06
5.27875e-05
8.70426e-06
4.44246e-05
1.84202e-05
3.66943e-05
2.72252e-05
2.95693e-05
3.45424e-05
2.28113e-05
3.9897e-05
1.61178e-05
4.2839e-05
9.16306e-06
4.29001e-05
1.58413e-06
3.95923e-05
-7.07895e-06
3.24712e-05
-1.74736e-05
2.13804e-05
-3.05725e-05
7.0538e-06
-4.76774e-05
-7.76907e-06
-6.97158e-05
-1.72131e-05
-9.44006e-05
-1.3763e-05
-0.000108747
-7.42092e-05
-1.34305e-05
5.39054e-05
-1.50806e-05
6.86175e-05
-5.09696e-06
5.80283e-05
9.81193e-06
4.63599e-05
2.58431e-05
3.67562e-05
4.12127e-05
2.9055e-05
5.50404e-05
2.28666e-05
6.68624e-05
1.77473e-05
7.63902e-05
1.32835e-05
8.33725e-05
9.13553e-06
8.75148e-05
5.02077e-06
8.8425e-05
6.73889e-07
8.55777e-05
-4.23169e-06
7.82668e-05
-1.01627e-05
6.56636e-05
-1.79693e-05
4.7188e-05
-2.92018e-05
2.37941e-05
-4.63219e-05
7.10794e-07
-7.13173e-05
-1.02174e-05
-9.78189e-05
-8.44267e-05
-9.40911e-06
6.33145e-05
8.82289e-06
5.03855e-05
3.5183e-05
3.16682e-05
6.00389e-05
2.1504e-05
8.14869e-05
1.53082e-05
9.94563e-05
1.10857e-05
0.000114206
8.11723e-06
0.000126019
5.93431e-06
0.0001351
4.20219e-06
0.000141534
2.70148e-06
0.00014527
1.28481e-06
0.000146101
-1.57187e-07
0.000143636
-1.76689e-06
0.000137174
-3.70043e-06
0.000125543
-6.33833e-06
0.000106894
-1.05525e-05
7.90765e-05
-1.85046e-05
4.22926e-05
-3.45333e-05
6.89752e-06
-6.24238e-05
-7.75291e-05
6.33145e-05
0.0001137
0.000145368
0.000166872
0.00018218
0.000193266
0.000201383
0.000207318
0.00021152
0.000214221
0.000215506
0.000215349
0.000213582
0.000209882
0.000203543
0.000192991
0.000174486
0.000139953
7.75291e-05
)
;

boundaryField
{
    movingWall
    {
        type            calculated;
        value           uniform 0;
    }
    fixedWalls
    {
        type            calculated;
        value           uniform 0;
    }
    frontAndBack
    {
        type            empty;
        value           nonuniform List<scalar> 0();
    }
}


// ************************************************************************* //
