/*--------------------------------*- C++ -*----------------------------------*\
  =========                 |
  \\      /  F ield         | OpenFOAM: The Open Source CFD Toolbox
   \\    /   O peration     | Website:  https://openfoam.org
    \\  /    A nd           | Version:  8
     \\/     M anipulation  |
\*---------------------------------------------------------------------------*/
FoamFile
{
    version     2.0;
    format      ascii;
    class       volVectorField;
    location    "1";
    object      U;
}
// * * * * * * * * * * * * * * * * * * * * * * * * * * * * * * * * * * * * * //

dimensions      [0 1 -1 0 0 0 0];

internalField   nonuniform List<vector> 
400
(
(0.00120492 -0.00120699 0)
(0.000402981 0.000673655 0)
(-0.00645073 0.00286791 0)
(-0.0179689 0.00434093 0)
(-0.0321758 0.00506969 0)
(-0.0472992 0.00518589 0)
(-0.0618341 0.00480638 0)
(-0.0744983 0.00400775 0)
(-0.0841781 0.00283768 0)
(-0.089916 0.00134576 0)
(-0.0909694 -0.000383527 0)
(-0.0869327 -0.00220726 0)
(-0.0778888 -0.00391675 0)
(-0.064544 -0.00525325 0)
(-0.0482913 -0.00594657 0)
(-0.0311511 -0.00577382 0)
(-0.0155474 -0.00462917 0)
(-0.00390955 -0.00259456 0)
(0.00189206 -8.6677e-05 0)
(0.00157729 0.00152454 0)
(-0.000622616 -0.000510787 0)
(-0.00896303 0.00884113 0)
(-0.0300567 0.0184046 0)
(-0.060387 0.0249867 0)
(-0.0959843 0.0282402 0)
(-0.133174 0.0284708 0)
(-0.168544 0.0260751 0)
(-0.199042 0.0213992 0)
(-0.222015 0.0147516 0)
(-0.235266 0.0064999 0)
(-0.237206 -0.00281662 0)
(-0.227093 -0.0124101 0)
(-0.205308 -0.0212362 0)
(-0.173572 -0.0280786 0)
(-0.13502 -0.0317298 0)
(-0.0940231 -0.0312558 0)
(-0.0556715 -0.0263064 0)
(-0.0249215 -0.0174136 0)
(-0.0057001 -0.00641539 0)
(0.000312568 0.00208307 0)
(-0.00307532 0.00649837 0)
(-0.0201058 0.0303333 0)
(-0.05558 0.0520782 0)
(-0.102994 0.0669045 0)
(-0.156664 0.0739991 0)
(-0.211706 0.0737903 0)
(-0.263492 0.0670372 0)
(-0.307813 0.0545345 0)
(-0.341006 0.0371125 0)
(-0.360065 0.0158052 0)
(-0.362853 -0.00794544 0)
(-0.348402 -0.0321552 0)
(-0.317241 -0.0543076 0)
(-0.271666 -0.0715543 0)
(-0.215835 -0.0811256 0)
(-0.155571 -0.0809239 0)
(-0.0977121 -0.0702171 0)
(-0.0490465 -0.050281 0)
(-0.0155798 -0.0250322 0)
(-0.00167175 -0.00260522 0)
(-0.00527214 0.0195513 0)
(-0.0305697 0.0642381 0)
(-0.0798791 0.10143 0)
(-0.143257 0.125957 0)
(-0.213218 0.137023 0)
(-0.283905 0.135378 0)
(-0.349854 0.122257 0)
(-0.406107 0.0990124 0)
(-0.448342 0.0671326 0)
(-0.472987 0.0284937 0)
(-0.47745 -0.0143418 0)
(-0.460444 -0.0579282 0)
(-0.422365 -0.0979563 0)
(-0.365645 -0.129568 0)
(-0.294952 -0.148007 0)
(-0.2171 -0.149589 0)
(-0.14042 -0.132851 0)
(-0.0736212 -0.0996067 0)
(-0.0253402 -0.0557565 0)
(-0.00346099 -0.0125729 0)
(-0.00717327 0.0379701 0)
(-0.0400228 0.109537 0)
(-0.10225 0.165043 0)
(-0.180488 0.200209 0)
(-0.265444 0.214979 0)
(-0.350409 0.21081 0)
(-0.429323 0.189609 0)
(-0.496748 0.153376 0)
(-0.547934 0.10431 0)
(-0.578875 0.0451609 0)
(-0.586504 -0.0203526 0)
(-0.569028 -0.0872549 0)
(-0.526364 -0.149299 0)
(-0.460622 -0.199341 0)
(-0.376523 -0.2302 0)
(-0.281554 -0.236005 0)
(-0.185517 -0.2139 0)
(-0.0994156 -0.165653 0)
(-0.0352334 -0.0987693 0)
(-0.00511016 -0.0275243 0)
(-0.00883648 0.0611615 0)
(-0.0484986 0.165325 0)
(-0.122549 0.241963 0)
(-0.214435 0.288683 0)
(-0.313165 0.306915 0)
(-0.411303 0.299298 0)
(-0.502387 0.268657 0)
(-0.580718 0.217737 0)
(-0.641298 0.149428 0)
(-0.679775 0.0672702 0)
(-0.692562 -0.0239736 0)
(-0.677141 -0.117886 0)
(-0.63257 -0.206258 0)
(-0.560136 -0.279427 0)
(-0.464085 -0.32725 0)
(-0.352195 -0.340827 0)
(-0.235687 -0.314865 0)
(-0.128281 -0.250126 0)
(-0.0462068 -0.155198 0)
(-0.00687325 -0.0476264 0)
(-0.0103019 0.0886017 0)
(-0.0560415 0.230598 0)
(-0.140693 0.331006 0)
(-0.244812 0.390162 0)
(-0.355883 0.411712 0)
(-0.46591 0.399984 0)
(-0.568237 0.359 0)
(-0.65713 0.292333 0)
(-0.727543 0.203494 0)
(-0.7749 0.0966196 0)
(-0.795083 -0.0227473 0)
(-0.784682 -0.147002 0)
(-0.741527 -0.266111 0)
(-0.665522 -0.367756 0)
(-0.559765 -0.438266 0)
(-0.431701 -0.464631 0)
(-0.293662 -0.437634 0)
(-0.162377 -0.355534 0)
(-0.0594145 -0.227134 0)
(-0.00904822 -0.0736668 0)
(-0.0115893 0.119795 0)
(-0.0626607 0.304264 0)
(-0.156544 0.430745 0)
(-0.271164 0.503063 0)
(-0.392674 0.52781 0)
(-0.512725 0.511542 0)
(-0.624724 0.459786 0)
(-0.723182 0.377023 0)
(-0.803276 0.267262 0)
(-0.860417 0.134958 0)
(-0.890078 -0.0139739 0)
(-0.887905 -0.17119 0)
(-0.85022 -0.325193 0)
(-0.774977 -0.461084 0)
(-0.66328 -0.561206 0)
(-0.521253 -0.607223 0)
(-0.361536 -0.584015 0)
(-0.203777 -0.485044 0)
(-0.076085 -0.317702 0)
(-0.0119633 -0.10711 0)
(-0.0127189 0.154252 0)
(-0.0683838 0.385159 0)
(-0.169985 0.539495 0)
(-0.292954 0.625322 0)
(-0.422283 0.652967 0)
(-0.549521 0.631816 0)
(-0.668464 0.569245 0)
(-0.774233 0.470737 0)
(-0.862603 0.340667 0)
(-0.929338 0.183457 0)
(-0.969795 0.00487285 0)
(-0.978847 -0.186652 0)
(-0.951225 -0.378811 0)
(-0.882473 -0.554563 0)
(-0.770747 -0.692136 0)
(-0.619446 -0.766737 0)
(-0.440002 -0.754941 0)
(-0.254125 -0.642032 0)
(-0.0974786 -0.430973 0)
(-0.0160007 -0.150124 0)
(-0.0137586 0.191526 0)
(-0.0734014 0.472095 0)
(-0.181142 0.655281 0)
(-0.309817 0.754227 0)
(-0.443387 0.783945 0)
(-0.573614 0.757365 0)
(-0.695105 0.684125 0)
(-0.804064 0.570836 0)
(-0.89736 0.422117 0)
(-0.971632 0.241999 0)
(-1.02265 0.0355038 0)
(-1.04498 -0.189673 0)
(-1.032 -0.4214 0)
(-0.976678 -0.641445 0)
(-0.873351 -0.824415 0)
(-0.720975 -0.938417 0)
(-0.527375 -0.949175 0)
(-0.314205 -0.829165 0)
(-0.124875 -0.571645 0)
(-0.0216483 -0.20563 0)
(-0.0149039 0.23136 0)
(-0.0783053 0.564051 0)
(-0.190739 0.775883 0)
(-0.321952 0.886264 0)
(-0.454972 0.916183 0)
(-0.582234 0.883013 0)
(-0.699727 0.799136 0)
(-0.805324 0.672459 0)
(-0.897599 0.507761 0)
(-0.974732 0.308366 0)
(-1.03365 0.0779613 0)
(-1.06938 -0.177407 0)
(-1.07466 -0.447069 0)
(-1.04022 -0.713157 0)
(-0.956113 -0.948082 0)
(-0.815121 -1.11326 0)
(-0.61826 -1.16154 0)
(-0.383243 -1.04691 0)
(-0.159525 -0.744453 0)
(-0.0295798 -0.277391 0)
(-0.016614 0.274033 0)
(-0.0844462 0.660544 0)
(-0.200546 0.898942 0)
(-0.330514 1.01696 0)
(-0.456639 1.04347 0)
(-0.572796 1.00142 0)
(-0.677162 0.906474 0)
(-0.769997 0.767986 0)
(-0.85226 0.59085 0)
(-0.924395 0.37745 0)
(-0.985343 0.129672 0)
(-1.03165 -0.148953 0)
(-1.05661 -0.450642 0)
(-1.04971 -0.75999 0)
(-0.997126 -1.04978 0)
(-0.884291 -1.27684 0)
(-0.701866 -1.38076 0)
(-0.457772 -1.29132 0)
(-0.20247 -0.953085 0)
(-0.040767 -0.370161 0)
(-0.0198524 0.320998 0)
(-0.0944517 0.762197 0)
(-0.213834 1.02202 0)
(-0.337769 1.14056 0)
(-0.448459 1.15749 0)
(-0.54261 1.10267 0)
(-0.62176 0.995462 0)
(-0.689413 0.846729 0)
(-0.749574 0.661389 0)
(-0.805584 0.440759 0)
(-0.859199 0.184657 0)
(-0.909594 -0.1065 0)
(-0.952125 -0.429092 0)
(-0.976893 -0.772528 0)
(-0.967733 -1.11359 0)
(-0.902972 -1.40883 0)
(-0.760058 -1.5873 0)
(-0.52986 -1.55086 0)
(-0.254031 -1.19824 0)
(-0.0565991 -0.489883 0)
(-0.0265051 0.376026 0)
(-0.112908 0.871391 0)
(-0.235484 1.14229 0)
(-0.346304 1.24924 0)
(-0.42947 1.24702 0)
(-0.487043 1.17371 0)
(-0.525598 1.05235 0)
(-0.552822 0.895001 0)
(-0.576258 0.706341 0)
(-0.602484 0.486522 0)
(-0.636502 0.2333 0)
(-0.680946 -0.0561542 0)
(-0.734727 -0.383111 0)
(-0.790899 -0.743802 0)
(-0.833944 -1.12312 0)
(-0.83753 -1.48391 0)
(-0.765376 -1.75182 0)
(-0.584419 -1.80259 0)
(-0.312466 -1.47409 0)
(-0.0788596 -0.643609 0)
(-0.0400065 0.447092 0)
(-0.146912 0.992494 0)
(-0.270657 1.25499 0)
(-0.355547 1.33119 0)
(-0.392817 1.29652 0)
(-0.394169 1.19768 0)
(-0.373322 1.06039 0)
(-0.342898 0.896805 0)
(-0.314023 0.710697 0)
(-0.296233 0.500869 0)
(-0.297517 0.263251 0)
(-0.324053 -0.00777844 0)
(-0.379183 -0.318144 0)
(-0.461132 -0.671752 0)
(-0.559019 -1.06506 0)
(-0.647076 -1.47489 0)
(-0.679129 -1.83573 0)
(-0.595086 -2.00836 0)
(-0.370561 -1.7627 0)
(-0.108924 -0.838537 0)
(-0.0657163 0.549498 0)
(-0.204753 1.13018 0)
(-0.318364 1.34908 0)
(-0.351063 1.36667 0)
(-0.313285 1.28376 0)
(-0.232441 1.15332 0)
(-0.131004 1.00064 0)
(-0.0262672 0.835677 0)
(0.0680915 0.659993 0)
(0.140873 0.470662 0)
(0.182391 0.262159 0)
(0.183947 0.0270775 0)
(0.138147 -0.24375 0)
(0.0405017 -0.560812 0)
(-0.106546 -0.933154 0)
(-0.285258 -1.35815 0)
(-0.449454 -1.79486 0)
(-0.517791 -2.11287 0)
(-0.407799 -2.02697 0)
(-0.14423 -1.08084 0)
(-0.108545 0.712151 0)
(-0.286075 1.28079 0)
(-0.348964 1.39361 0)
(-0.276112 1.31807 0)
(-0.119753 1.17516 0)
(0.072964 1.01432 0)
(0.272905 0.853982 0)
(0.461274 0.698189 0)
(0.624957 0.544595 0)
(0.753864 0.38814 0)
(0.839039 0.22238 0)
(0.871456 0.0395211 0)
(0.841527 -0.170446 0)
(0.739416 -0.421212 0)
(0.557416 -0.731291 0)
(0.297862 -1.12002 0)
(-0.00897866 -1.58564 0)
(-0.281516 -2.04321 0)
(-0.376058 -2.20061 0)
(-0.167789 -1.37379 0)
(-0.155428 0.978461 0)
(-0.340093 1.40046 0)
(-0.237109 1.30645 0)
(0.0334724 1.11477 0)
(0.355063 0.923783 0)
(0.674851 0.754336 0)
(0.969855 0.608682 0)
(1.22818 0.481921 0)
(1.44301 0.367124 0)
(1.60942 0.257519 0)
(1.72227 0.146748 0)
(1.77491 0.0282513 0)
(1.75843 -0.106053 0)
(1.6606 -0.268168 0)
(1.46553 -0.478192 0)
(1.15699 -0.768879 0)
(0.731302 -1.18068 0)
(0.228231 -1.71339 0)
(-0.173245 -2.15953 0)
(-0.118904 -1.67505 0)
(-0.0475433 1.26951 0)
(-0.0720271 1.31689 0)
(0.411496 0.968989 0)
(0.958291 0.709577 0)
(1.42963 0.529371 0)
(1.82329 0.398446 0)
(2.14942 0.301163 0)
(2.41435 0.226153 0)
(2.62288 0.164601 0)
(2.77802 0.110124 0)
(2.88025 0.0580127 0)
(2.92712 0.00428734 0)
(2.91292 -0.0552922 0)
(2.82715 -0.127356 0)
(2.65199 -0.224388 0)
(2.35855 -0.373291 0)
(1.90193 -0.630396 0)
(1.22464 -1.07923 0)
(0.452878 -1.6886 0)
(0.217522 -1.70186 0)
(1.43834 0.707237 0)
(1.8358 0.626611 0)
(2.56348 0.3983 0)
(3.1376 0.251682 0)
(3.51202 0.164267 0)
(3.76924 0.109437 0)
(3.95681 0.0740083 0)
(4.0952 0.0502425 0)
(4.19535 0.033125 0)
(4.26372 0.0195253 0)
(4.30339 0.00749425 0)
(4.31488 -0.00430636 0)
(4.29632 -0.016955 0)
(4.24295 -0.0321746 0)
(4.14496 -0.0531815 0)
(3.98121 -0.0879854 0)
(3.70247 -0.158361 0)
(3.17439 -0.316166 0)
(2.29956 -0.622768 0)
(1.66829 -0.779883 0)
)
;

boundaryField
{
    movingWall
    {
        type            fixedValue;
        value           uniform (5.07418 0 0);
    }
    fixedWalls
    {
        type            noSlip;
    }
    frontAndBack
    {
        type            empty;
    }
}


// ************************************************************************* //
