/*--------------------------------*- C++ -*----------------------------------*\
  =========                 |
  \\      /  F ield         | OpenFOAM: The Open Source CFD Toolbox
   \\    /   O peration     | Website:  https://openfoam.org
    \\  /    A nd           | Version:  8
     \\/     M anipulation  |
\*---------------------------------------------------------------------------*/
FoamFile
{
    version     2.0;
    format      ascii;
    class       volScalarField;
    location    "1";
    object      p;
}
// * * * * * * * * * * * * * * * * * * * * * * * * * * * * * * * * * * * * * //

dimensions      [0 2 -2 0 0 0 0];

internalField   nonuniform List<scalar> 
400
(
-0.0991556
-0.198119
-0.251253
-0.276623
-0.280254
-0.268038
-0.2431
-0.206025
-0.159459
-0.106392
-0.0490563
0.0103632
0.0691012
0.124015
0.172233
0.211706
0.241441
0.261423
0.272432
0.276094
-0.198507
-0.238972
-0.268493
-0.283637
-0.28262
-0.267766
-0.241426
-0.204292
-0.15855
-0.106558
-0.0501312
0.00870614
0.067174
0.121998
0.170111
0.209294
0.238475
0.257582
0.26698
0.266628
-0.250191
-0.268396
-0.280197
-0.284597
-0.277267
-0.259919
-0.233851
-0.198758
-0.156184
-0.10791
-0.0550825
0.000838105
0.0572669
0.110701
0.157594
0.195298
0.22263
0.239734
0.247174
0.245423
-0.273191
-0.280688
-0.280692
-0.276497
-0.263872
-0.244745
-0.22
-0.188506
-0.151181
-0.109188
-0.062765
-0.012431
0.0397261
0.0900704
0.134503
0.169813
0.194567
0.209032
0.214119
0.210866
-0.278015
-0.279046
-0.271599
-0.261007
-0.244049
-0.223502
-0.200418
-0.1731
-0.14198
-0.107901
-0.0703106
-0.0285531
0.0162026
0.0605741
0.100182
0.131431
0.152653
0.164025
0.16676
0.16229
-0.270327
-0.267621
-0.255714
-0.241035
-0.2211
-0.199725
-0.178627
-0.15574
-0.130991
-0.105426
-0.0782917
-0.0478134
-0.0137511
0.0214574
0.053731
0.0793779
0.0964555
0.104753
0.105725
0.100981
-0.255755
-0.251818
-0.238251
-0.222208
-0.201241
-0.179955
-0.161164
-0.142753
-0.123659
-0.10558
-0.0887049
-0.0707994
-0.0499488
-0.0267683
-0.00410496
0.0148168
0.0277829
0.0337774
0.0341966
0.0304781
-0.239626
-0.236784
-0.224493
-0.210283
-0.190978
-0.171256
-0.155307
-0.141918
-0.127866
-0.115186
-0.106341
-0.100048
-0.0930305
-0.0833408
-0.0714859
-0.0594341
-0.0495721
-0.0442359
-0.042768
-0.044518
-0.224371
-0.224884
-0.216879
-0.208203
-0.194434
-0.179094
-0.167145
-0.1607
-0.152922
-0.144298
-0.14016
-0.142091
-0.146695
-0.149396
-0.147495
-0.14086
-0.131827
-0.124618
-0.120438
-0.120425
-0.208219
-0.213777
-0.212738
-0.213415
-0.210304
-0.204521
-0.198644
-0.202443
-0.205324
-0.202725
-0.201452
-0.207355
-0.218942
-0.230064
-0.234754
-0.230195
-0.218332
-0.205749
-0.197039
-0.196619
-0.185032
-0.196174
-0.204631
-0.218395
-0.231709
-0.244075
-0.248042
-0.265399
-0.285262
-0.294919
-0.298842
-0.306557
-0.320235
-0.334174
-0.340256
-0.333018
-0.313563
-0.290888
-0.274554
-0.274345
-0.145647
-0.162229
-0.184311
-0.216115
-0.250923
-0.29302
-0.314356
-0.34753
-0.388457
-0.417472
-0.432617
-0.443925
-0.457161
-0.469024
-0.471372
-0.456947
-0.425168
-0.38638
-0.355867
-0.351836
-0.0812297
-0.104263
-0.148032
-0.207309
-0.266808
-0.347303
-0.398099
-0.450525
-0.51175
-0.562407
-0.593836
-0.612427
-0.624974
-0.631457
-0.626522
-0.602891
-0.556473
-0.4954
-0.438828
-0.418456
0.0129916
-0.0209254
-0.0965097
-0.197905
-0.285942
-0.398522
-0.487195
-0.567222
-0.649353
-0.721101
-0.771431
-0.799142
-0.807106
-0.801079
-0.784008
-0.7516
-0.693212
-0.607447
-0.509909
-0.45257
0.13841
0.0835705
-0.0259453
-0.174937
-0.303403
-0.425873
-0.541512
-0.657962
-0.774189
-0.877712
-0.957189
-0.999561
-0.983386
-0.941141
-0.896318
-0.851961
-0.788067
-0.684629
-0.539426
-0.425546
0.302194
0.209161
0.0779123
-0.0842637
-0.265851
-0.397308
-0.527558
-0.689714
-0.875179
-1.05192
-1.18681
-1.23998
-1.18256
-1.05135
-0.917607
-0.826133
-0.753435
-0.651644
-0.480184
-0.309873
0.525012
0.382566
0.23914
0.116635
-0.0926545
-0.292198
-0.515371
-0.782747
-1.07148
-1.33335
-1.51587
-1.57652
-1.49615
-1.26351
-0.954565
-0.668694
-0.483047
-0.390033
-0.265218
-0.0887582
0.837125
0.689933
0.543337
0.366659
0.0751833
-0.269888
-0.665184
-1.06729
-1.41581
-1.67842
-1.84436
-1.90815
-1.85925
-1.66453
-1.2738
-0.695195
-0.132046
0.200117
0.247564
0.314949
1.45408
1.25509
0.951411
0.481804
-0.106522
-0.645372
-1.08618
-1.44551
-1.73036
-1.94144
-2.08058
-2.14763
-2.13311
-2.00875
-1.71939
-1.17889
-0.310713
0.604441
1.10243
1.19902
2.09928
1.62251
0.829973
-0.00155429
-0.58488
-1.00253
-1.3415
-1.62731
-1.86021
-2.03803
-2.16065
-2.22677
-2.22791
-2.14364
-1.94095
-1.57479
-0.944291
0.126414
1.46125
2.18885
)
;

boundaryField
{
    movingWall
    {
        type            zeroGradient;
    }
    fixedWalls
    {
        type            zeroGradient;
    }
    frontAndBack
    {
        type            empty;
    }
}


// ************************************************************************* //
