/*--------------------------------*- C++ -*----------------------------------*\
  =========                 |
  \\      /  F ield         | OpenFOAM: The Open Source CFD Toolbox
   \\    /   O peration     | Website:  https://openfoam.org
    \\  /    A nd           | Version:  8
     \\/     M anipulation  |
\*---------------------------------------------------------------------------*/
FoamFile
{
    version     2.0;
    format      ascii;
    class       surfaceScalarField;
    location    "1";
    object      phi;
}
// * * * * * * * * * * * * * * * * * * * * * * * * * * * * * * * * * * * * * //

dimensions      [0 3 -1 0 0 0 0];

internalField   nonuniform List<scalar> 
760
(
6.40778e-08
-6.40498e-08
-1.33813e-07
1.97892e-07
-6.01228e-07
4.67418e-07
-1.24944e-06
6.48207e-07
-1.98569e-06
7.36257e-07
-2.72896e-06
7.43271e-07
-3.41036e-06
6.81399e-07
-3.97053e-06
5.60162e-07
-4.35778e-06
3.87256e-07
-4.52939e-06
1.71605e-07
-4.45613e-06
-7.32624e-08
-4.1293e-06
-3.26827e-07
-3.56805e-06
-5.61251e-07
-2.82453e-06
-7.43517e-07
-1.98416e-06
-8.40366e-07
-1.15864e-06
-8.25523e-07
-4.70514e-07
-6.88128e-07
-2.9838e-08
-4.40676e-07
1.02167e-07
-1.32003e-07
1.0217e-07
-1.96167e-07
1.32109e-07
-9.6581e-07
9.67543e-07
-2.25608e-06
1.75769e-06
-3.90494e-06
2.29707e-06
-5.72639e-06
2.55771e-06
-7.54175e-06
2.55863e-06
-9.18957e-06
2.32922e-06
-1.05277e-05
1.89834e-06
-1.14351e-05
1.29462e-06
-1.18167e-05
5.53209e-07
-1.16138e-05
-2.7617e-07
-1.08167e-05
-1.12394e-06
-9.47734e-06
-1.9006e-06
-7.71685e-06
-2.50401e-06
-5.72301e-06
-2.83421e-06
-3.73346e-06
-2.81508e-06
-2.00212e-06
-2.41947e-06
-7.49998e-07
-1.69281e-06
-1.03256e-07
-7.78754e-07
-1.08273e-09
-5.05968e-07
6.38083e-07
-1.89178e-06
2.35335e-06
-3.96603e-06
3.83195e-06
-6.48838e-06
4.81941e-06
-9.20609e-06
5.27542e-06
-1.18771e-05
5.22963e-06
-1.42801e-05
4.73221e-06
-1.62188e-05
3.83708e-06
-1.75266e-05
2.60243e-06
-1.80747e-05
1.10124e-06
-1.77848e-05
-5.66073e-07
-1.66453e-05
-2.26342e-06
-1.47262e-05
-3.81964e-06
-1.21886e-05
-5.04161e-06
-9.28202e-06
-5.74083e-06
-6.32451e-06
-5.77259e-06
-3.66178e-06
-5.0822e-06
-1.60712e-06
-3.74746e-06
-3.71251e-07
-2.01463e-06
-3.72333e-07
-7.89191e-07
1.42728e-06
-2.76763e-06
4.33179e-06
-5.58593e-06
6.65024e-06
-8.90997e-06
8.14345e-06
-1.24245e-05
8.78992e-06
-1.58397e-05
8.64484e-06
-1.88943e-05
7.78679e-06
-2.13569e-05
6.29972e-06
-2.30304e-05
4.27588e-06
-2.37602e-05
1.83108e-06
-2.34488e-05
-8.77438e-07
-2.20733e-05
-3.63899e-06
-1.97035e-05
-6.18946e-06
-1.65163e-05
-8.22873e-06
-1.27987e-05
-9.45843e-06
-8.9313e-06
-9.64003e-06
-5.34753e-06
-8.66596e-06
-2.46858e-06
-6.62641e-06
-6.26056e-07
-3.85715e-06
-9.98388e-07
-1.04151e-06
2.46878e-06
-3.5688e-06
6.85908e-06
-7.08099e-06
1.01624e-05
-1.11472e-05
1.22097e-05
-1.53921e-05
1.30348e-05
-1.94876e-05
1.27403e-05
-2.31448e-05
1.14441e-05
-2.61102e-05
9.26507e-06
-2.81648e-05
6.33051e-06
-2.91316e-05
2.79784e-06
-2.88883e-05
-1.12067e-06
-2.73874e-05
-5.13997e-06
-2.46784e-05
-8.89843e-06
-2.09313e-05
-1.19758e-05
-1.64506e-05
-1.39391e-05
-1.1671e-05
-1.44196e-05
-7.12267e-06
-1.32143e-05
-3.36175e-06
-1.03873e-05
-8.76835e-07
-6.34206e-06
-1.87522e-06
-1.26641e-06
3.73519e-06
-4.29299e-06
9.88567e-06
-8.44154e-06
1.4311e-05
-1.31895e-05
1.69576e-05
-1.81067e-05
1.79521e-05
-2.28349e-05
1.74684e-05
-2.70684e-05
1.56776e-05
-3.05409e-05
1.27376e-05
-3.30188e-05
8.80844e-06
-3.43034e-05
4.0824e-06
-3.42413e-05
-1.18269e-06
-3.27453e-05
-6.63596e-06
-2.98228e-05
-1.1821e-05
-2.56106e-05
-1.6188e-05
-2.04081e-05
-1.91417e-05
-1.46928e-05
-2.01349e-05
-9.10135e-06
-1.88058e-05
-4.35735e-06
-1.51313e-05
-1.1515e-06
-9.5479e-06
-3.02672e-06
-1.46624e-06
5.20144e-06
-4.93951e-06
1.33589e-05
-9.65846e-06
1.90299e-05
-1.50172e-05
2.23164e-05
-2.0539e-05
2.34739e-05
-2.58446e-05
2.2774e-05
-3.06225e-05
2.04555e-05
-3.46045e-05
1.67195e-05
-3.75501e-05
1.17541e-05
-3.9242e-05
5.77428e-06
-3.94915e-05
-9.33231e-07
-3.8158e-05
-7.96943e-06
-3.51835e-05
-1.47954e-05
-3.06411e-05
-2.07304e-05
-2.47918e-05
-2.4991e-05
-1.81329e-05
-2.67938e-05
-1.14071e-05
-2.55316e-05
-5.539e-06
-2.09994e-05
-1.48238e-06
-1.36045e-05
-4.50911e-06
-1.64165e-06
6.84309e-06
-5.50537e-06
1.72227e-05
-1.07172e-05
2.42418e-05
-1.65963e-05
2.81955e-05
-2.26283e-05
2.95059e-05
-2.84254e-05
2.85711e-05
-3.36834e-05
2.57135e-05
-3.81459e-05
2.1182e-05
-4.15779e-05
1.51862e-05
-4.37517e-05
7.94805e-06
-4.4445e-05
-2.39997e-07
-4.3456e-05
-8.95841e-06
-4.06401e-05
-1.76113e-05
-3.5971e-05
-2.53996e-05
-2.96252e-05
-3.13368e-05
-2.20744e-05
-3.43445e-05
-1.41458e-05
-3.34602e-05
-6.99027e-06
-2.8155e-05
-1.90351e-06
-1.86913e-05
-6.41261e-06
-1.79344e-06
8.63653e-06
-5.98856e-06
2.14178e-05
-1.16018e-05
2.9855e-05
-1.78819e-05
3.44756e-05
-2.42877e-05
3.59117e-05
-3.0437e-05
3.47204e-05
-3.60504e-05
3.13269e-05
-4.09017e-05
2.60333e-05
-4.478e-05
1.90644e-05
-4.74636e-05
1.06317e-05
-4.87084e-05
1.00481e-06
-4.82541e-05
-9.41275e-06
-4.58559e-05
-2.00095e-05
-4.13525e-05
-2.99029e-05
-3.4777e-05
-3.79123e-05
-2.65016e-05
-4.26198e-05
-1.73788e-05
-4.2583e-05
-8.78548e-06
-3.67483e-05
-2.45049e-06
-2.50263e-05
-8.8631e-06
-1.92686e-06
1.05634e-05
-6.3974e-06
2.58883e-05
-1.23068e-05
3.57644e-05
-1.88325e-05
4.10013e-05
-2.54174e-05
4.24966e-05
-3.17039e-05
4.10069e-05
-3.74594e-05
3.70825e-05
-4.25125e-05
3.10863e-05
-4.67014e-05
2.32534e-05
-4.98372e-05
1.37675e-05
-5.16787e-05
2.84631e-06
-5.19248e-05
-9.16663e-06
-5.02332e-05
-2.17012e-05
-4.62819e-05
-3.38541e-05
-3.98948e-05
-4.42994e-05
-3.12418e-05
-5.12728e-05
-2.10874e-05
-5.27375e-05
-1.09793e-05
-4.68564e-05
-3.16201e-06
-3.28436e-05
-1.20251e-05
-2.05893e-06
1.26223e-05
-6.76576e-06
3.05952e-05
-1.28565e-05
4.18552e-05
-1.94282e-05
4.7573e-05
-2.5923e-05
4.89914e-05
-3.20338e-05
4.71176e-05
-3.76038e-05
4.26525e-05
-4.25457e-05
3.60283e-05
-4.67793e-05
2.74869e-05
-5.01831e-05
1.71712e-05
-5.25571e-05
5.22035e-06
-5.35971e-05
-8.12665e-06
-5.28894e-05
-2.24089e-05
-4.9949e-05
-3.67945e-05
-4.43363e-05
-4.99121e-05
-3.58946e-05
-5.97146e-05
-2.51225e-05
-6.35095e-05
-1.35893e-05
-5.83896e-05
-4.08195e-06
-4.23509e-05
-1.61071e-05
-2.22994e-06
1.48523e-05
-7.17403e-06
3.55392e-05
-1.3326e-05
4.80072e-05
-1.96885e-05
5.39354e-05
-2.57301e-05
5.5033e-05
-3.12329e-05
5.26204e-05
-3.61538e-05
4.75735e-05
-4.05248e-05
4.03992e-05
-4.43814e-05
3.13435e-05
-4.77094e-05
2.04993e-05
-5.03981e-05
7.90896e-06
-5.21954e-05
-6.32929e-06
-5.2673e-05
-2.19314e-05
-5.12191e-05
-3.82484e-05
-4.7112e-05
-5.40192e-05
-3.97511e-05
-6.70755e-05
-2.91335e-05
-7.4127e-05
-1.65641e-05
-7.0959e-05
-5.2613e-06
-5.36538e-05
-2.13684e-05
-2.52215e-06
1.73744e-05
-7.77467e-06
4.07918e-05
-1.38571e-05
5.40896e-05
-1.96723e-05
5.97506e-05
-2.47728e-05
6.01335e-05
-2.90923e-05
5.694e-05
-3.27514e-05
5.12325e-05
-3.59385e-05
4.35863e-05
-3.88377e-05
3.42427e-05
-4.15775e-05
2.32391e-05
-4.41834e-05
1.05149e-05
-4.65219e-05
-3.99084e-06
-4.82332e-05
-2.022e-05
-4.86657e-05
-3.78159e-05
-4.68632e-05
-5.58217e-05
-4.17182e-05
-7.22205e-05
-3.24726e-05
-8.33726e-05
-1.97257e-05
-8.37059e-05
-6.75644e-06
-6.6623e-05
-2.81248e-05
-3.08975e-06
2.04642e-05
-8.81471e-06
4.65167e-05
-1.46408e-05
5.99157e-05
-1.94199e-05
6.45298e-05
-2.29101e-05
6.36237e-05
-2.52971e-05
5.9327e-05
-2.69287e-05
5.28641e-05
-2.81857e-05
4.48434e-05
-2.9421e-05
3.5478e-05
-3.09246e-05
2.47427e-05
-3.28898e-05
1.248e-05
-3.53586e-05
-1.52205e-06
-3.8136e-05
-1.74426e-05
-4.06641e-05
-3.52879e-05
-4.18923e-05
-5.45934e-05
-4.02615e-05
-7.38514e-05
-3.40741e-05
-8.956e-05
-2.26655e-05
-9.51145e-05
-8.61167e-06
-8.06768e-05
-3.67365e-05
-4.19989e-06
2.46641e-05
-1.06201e-05
5.29369e-05
-1.57941e-05
6.50897e-05
-1.87417e-05
6.74774e-05
-1.96693e-05
6.45513e-05
-1.91631e-05
5.88207e-05
-1.78675e-05
5.15685e-05
-1.63754e-05
4.33513e-05
-1.52024e-05
3.4305e-05
-1.47864e-05
2.43268e-05
-1.54835e-05
1.31771e-05
-1.75352e-05
5.29628e-07
-2.09867e-05
-1.3991e-05
-2.55287e-05
-3.0746e-05
-3.02502e-05
-4.98718e-05
-3.33774e-05
-7.07243e-05
-3.22972e-05
-9.06402e-05
-2.45494e-05
-0.000102862
-1.0785e-05
-9.44412e-05
-4.75214e-05
-6.2459e-06
3.091e-05
-1.34035e-05
6.00946e-05
-1.69218e-05
6.8608e-05
-1.66356e-05
6.71912e-05
-1.36259e-05
6.15416e-05
-9.05041e-06
5.42452e-05
-3.88359e-06
4.64017e-05
1.10126e-06
3.83664e-05
5.28474e-06
3.01215e-05
8.14513e-06
2.14664e-05
9.22186e-06
1.21004e-05
8.10927e-06
1.64222e-06
4.50583e-06
-1.03876e-05
-1.64737e-06
-2.45928e-05
-9.86102e-06
-4.16582e-05
-1.85907e-05
-6.19946e-05
-2.47069e-05
-8.4524e-05
-2.37447e-05
-0.000103825
-1.29111e-05
-0.000105275
-6.04326e-05
-9.55991e-06
4.04699e-05
-1.6424e-05
6.69586e-05
-1.58186e-05
6.80027e-05
-9.88728e-06
6.12598e-05
-1.12474e-06
5.27791e-05
8.70368e-06
4.44168e-05
1.84181e-05
3.66873e-05
2.72215e-05
2.9563e-05
3.45373e-05
2.28058e-05
3.98905e-05
1.61131e-05
4.28314e-05
9.15948e-06
4.28918e-05
1.58185e-06
3.95838e-05
-7.07966e-06
3.24634e-05
-1.74724e-05
2.13741e-05
-3.05689e-05
7.05007e-06
-4.76705e-05
-7.76954e-06
-6.97044e-05
-1.72108e-05
-9.43833e-05
-1.37604e-05
-0.000108725
-7.41929e-05
-1.34281e-05
5.3898e-05
-1.50774e-05
6.86079e-05
-5.09473e-06
5.802e-05
9.81234e-06
4.63528e-05
2.58413e-05
3.67501e-05
4.12085e-05
2.90497e-05
5.50339e-05
2.28619e-05
6.68536e-05
1.77433e-05
7.63792e-05
1.32801e-05
8.33596e-05
9.13276e-06
8.75004e-05
5.01871e-06
8.84096e-05
6.72654e-07
8.55619e-05
-4.23197e-06
7.82513e-05
-1.01618e-05
6.56495e-05
-1.7967e-05
4.71767e-05
-2.91977e-05
2.3787e-05
-4.63147e-05
7.08703e-07
-7.1305e-05
-1.02163e-05
-9.78002e-05
-8.44092e-05
-9.4065e-06
6.33045e-05
8.82348e-06
5.03779e-05
3.518e-05
3.16634e-05
6.00323e-05
2.15005e-05
8.1477e-05
1.53054e-05
9.94432e-05
1.10834e-05
0.00011419
8.11541e-06
0.000126
5.93283e-06
0.000135079
4.20101e-06
0.000141511
2.70059e-06
0.000145246
1.28422e-06
0.000146076
-1.57489e-07
0.000143611
-1.76681e-06
0.000137149
-3.69996e-06
0.000125519
-6.3374e-06
0.000106873
-1.0551e-05
7.90597e-05
-1.85018e-05
4.22823e-05
-3.45276e-05
6.89468e-06
-6.24126e-05
-7.75146e-05
6.33045e-05
0.000113682
0.000145346
0.000166846
0.000182152
0.000193235
0.000201351
0.000207283
0.000211484
0.000214185
0.000215469
0.000215312
0.000213545
0.000209845
0.000203508
0.000192957
0.000174455
0.000139927
7.75146e-05
)
;

boundaryField
{
    movingWall
    {
        type            calculated;
        value           uniform 0;
    }
    fixedWalls
    {
        type            calculated;
        value           uniform 0;
    }
    frontAndBack
    {
        type            empty;
        value           nonuniform List<scalar> 0();
    }
}


// ************************************************************************* //
