/*--------------------------------*- C++ -*----------------------------------*\
  =========                 |
  \\      /  F ield         | OpenFOAM: The Open Source CFD Toolbox
   \\    /   O peration     | Website:  https://openfoam.org
    \\  /    A nd           | Version:  8
     \\/     M anipulation  |
\*---------------------------------------------------------------------------*/
FoamFile
{
    version     2.0;
    format      ascii;
    class       volVectorField;
    location    "1";
    object      U;
}
// * * * * * * * * * * * * * * * * * * * * * * * * * * * * * * * * * * * * * //

dimensions      [0 1 -1 0 0 0 0];

internalField   nonuniform List<vector> 
400
(
(0.00120473 -0.00120686 0)
(0.000402906 0.000673531 0)
(-0.00644983 0.00286751 0)
(-0.0179664 0.00434035 0)
(-0.0321714 0.00506903 0)
(-0.0472929 0.0051852 0)
(-0.0618258 0.00480573 0)
(-0.0744882 0.00400717 0)
(-0.0841667 0.00283724 0)
(-0.0899036 0.00134551 0)
(-0.0909567 -0.000383525 0)
(-0.0869205 -0.00220697 0)
(-0.0778779 -0.00391619 0)
(-0.0645351 -0.00525246 0)
(-0.0482849 -0.00594568 0)
(-0.0311471 -0.00577298 0)
(-0.0155457 -0.00462854 0)
(-0.00390937 -0.00259427 0)
(0.00189161 -8.67444e-05 0)
(0.00157703 0.00152429 0)
(-0.000622525 -0.000510808 0)
(-0.00896174 0.00883983 0)
(-0.0300525 0.018402 0)
(-0.0603787 0.0249834 0)
(-0.0959712 0.0282364 0)
(-0.133156 0.028467 0)
(-0.168521 0.0260715 0)
(-0.199015 0.0213962 0)
(-0.221985 0.0147494 0)
(-0.235234 0.00649876 0)
(-0.237173 -0.00281641 0)
(-0.227061 -0.0124084 0)
(-0.205279 -0.0212331 0)
(-0.173548 -0.0280745 0)
(-0.135002 -0.0317251 0)
(-0.0940107 -0.0312513 0)
(-0.0556646 -0.0263028 0)
(-0.0249188 -0.0174114 0)
(-0.00569973 -0.00641484 0)
(0.000312415 0.0020826 0)
(-0.00307485 0.00649734 0)
(-0.0201029 0.030329 0)
(-0.0555722 0.0520711 0)
(-0.102979 0.0668955 0)
(-0.156642 0.0739892 0)
(-0.211677 0.0737803 0)
(-0.263456 0.0670279 0)
(-0.307771 0.0545267 0)
(-0.340959 0.0371069 0)
(-0.360015 0.0158025 0)
(-0.362803 -0.0079447 0)
(-0.348353 -0.0321508 0)
(-0.317197 -0.0542997 0)
(-0.271628 -0.0715438 0)
(-0.215806 -0.0811137 0)
(-0.15555 -0.0809122 0)
(-0.0976995 -0.0702073 0)
(-0.0490406 -0.0502745 0)
(-0.0155782 -0.0250295 0)
(-0.00167167 -0.00260532 0)
(-0.00527134 0.0195483 0)
(-0.0305653 0.064229 0)
(-0.0798678 0.101416 0)
(-0.143237 0.12594 0)
(-0.213189 0.137005 0)
(-0.283866 0.135359 0)
(-0.349806 0.12224 0)
(-0.406051 0.0989982 0)
(-0.448279 0.0671225 0)
(-0.472921 0.0284889 0)
(-0.477383 -0.0143404 0)
(-0.460379 -0.0579203 0)
(-0.422305 -0.0979423 0)
(-0.365593 -0.129549 0)
(-0.294911 -0.147985 0)
(-0.21707 -0.149567 0)
(-0.140401 -0.132832 0)
(-0.0736118 -0.0995936 0)
(-0.0253373 -0.0557499 0)
(-0.0034607 -0.012572 0)
(-0.00717218 0.0379644 0)
(-0.040017 0.109521 0)
(-0.102235 0.16502 0)
(-0.180463 0.200182 0)
(-0.265408 0.21495 0)
(-0.350361 0.210782 0)
(-0.429264 0.189582 0)
(-0.49668 0.153354 0)
(-0.547858 0.104294 0)
(-0.578794 0.0451531 0)
(-0.586421 -0.020351 0)
(-0.568946 -0.0872433 0)
(-0.526288 -0.149278 0)
(-0.460555 -0.199312 0)
(-0.376468 -0.230166 0)
(-0.281514 -0.235971 0)
(-0.185491 -0.213869 0)
(-0.0994022 -0.165631 0)
(-0.0352291 -0.0987572 0)
(-0.00510967 -0.0275217 0)
(-0.00883516 0.0611524 0)
(-0.0484917 0.165302 0)
(-0.122532 0.241929 0)
(-0.214406 0.288644 0)
(-0.313123 0.306874 0)
(-0.411247 0.299258 0)
(-0.502319 0.268619 0)
(-0.580638 0.217705 0)
(-0.641209 0.149405 0)
(-0.67968 0.0672582 0)
(-0.692463 -0.0239726 0)
(-0.677043 -0.117871 0)
(-0.632477 -0.206229 0)
(-0.560053 -0.279386 0)
(-0.464016 -0.327202 0)
(-0.352142 -0.340777 0)
(-0.235653 -0.314819 0)
(-0.128263 -0.250091 0)
(-0.0462007 -0.155179 0)
(-0.00687251 -0.0476213 0)
(-0.0103004 0.0885887 0)
(-0.0560338 0.230566 0)
(-0.140674 0.330961 0)
(-0.24478 0.390109 0)
(-0.355836 0.411657 0)
(-0.465848 0.399929 0)
(-0.568162 0.358949 0)
(-0.657041 0.292291 0)
(-0.727444 0.203462 0)
(-0.774791 0.0966017 0)
(-0.794969 -0.0227484 0)
(-0.784567 -0.146985 0)
(-0.741416 -0.266075 0)
(-0.665421 -0.367703 0)
(-0.559679 -0.438202 0)
(-0.431634 -0.464562 0)
(-0.293617 -0.437569 0)
(-0.162353 -0.355483 0)
(-0.0594061 -0.227103 0)
(-0.00904712 -0.0736583 0)
(-0.0115877 0.119778 0)
(-0.0626524 0.304222 0)
(-0.156524 0.430688 0)
(-0.27113 0.502996 0)
(-0.392625 0.527739 0)
(-0.51266 0.511472 0)
(-0.624644 0.459721 0)
(-0.723087 0.376967 0)
(-0.803167 0.26722 0)
(-0.860298 0.134932 0)
(-0.889951 -0.0139793 0)
(-0.887775 -0.171172 0)
(-0.850091 -0.325151 0)
(-0.774857 -0.461019 0)
(-0.663175 -0.561124 0)
(-0.521169 -0.607131 0)
(-0.361478 -0.583927 0)
(-0.203744 -0.484972 0)
(-0.0760734 -0.317658 0)
(-0.0119617 -0.107096 0)
(-0.0127173 0.154231 0)
(-0.0683755 0.385107 0)
(-0.169964 0.539424 0)
(-0.292919 0.625241 0)
(-0.422232 0.652881 0)
(-0.549454 0.63173 0)
(-0.668381 0.569165 0)
(-0.774135 0.470667 0)
(-0.86249 0.340611 0)
(-0.929211 0.18342 0)
(-0.969658 0.00486049 0)
(-0.978704 -0.186636 0)
(-0.951081 -0.378765 0)
(-0.882335 -0.554487 0)
(-0.770623 -0.692035 0)
(-0.619344 -0.766621 0)
(-0.439929 -0.754825 0)
(-0.254083 -0.641934 0)
(-0.0974627 -0.43091 0)
(-0.0159983 -0.150104 0)
(-0.0137571 0.191499 0)
(-0.0733933 0.472033 0)
(-0.181122 0.655197 0)
(-0.309783 0.754131 0)
(-0.443338 0.783843 0)
(-0.573549 0.757263 0)
(-0.695024 0.684028 0)
(-0.803966 0.57075 0)
(-0.897246 0.422047 0)
(-0.971504 0.24195 0)
(-1.02251 0.0354816 0)
(-1.04483 -0.189662 0)
(-1.03185 -0.421352 0)
(-0.976525 -0.64136 0)
(-0.873209 -0.824296 0)
(-0.720853 -0.938274 0)
(-0.527284 -0.949027 0)
(-0.31415 -0.829035 0)
(-0.124854 -0.571558 0)
(-0.0216447 -0.205601 0)
(-0.0149024 0.23133 0)
(-0.0782978 0.56398 0)
(-0.19072 0.775786 0)
(-0.321921 0.886153 0)
(-0.454926 0.916066 0)
(-0.582173 0.882896 0)
(-0.699651 0.799023 0)
(-0.805232 0.672357 0)
(-0.897491 0.507675 0)
(-0.974609 0.308302 0)
(-1.03351 0.0779265 0)
(-1.06923 -0.177406 0)
(-1.07451 -0.447026 0)
(-1.04006 -0.713068 0)
(-0.955957 -0.947949 0)
(-0.814982 -1.11309 0)
(-0.618151 -1.16136 0)
(-0.383174 -1.04675 0)
(-0.159496 -0.744334 0)
(-0.0295746 -0.277349 0)
(-0.0166127 0.273999 0)
(-0.0844395 0.660464 0)
(-0.20053 0.898834 0)
(-0.330486 1.01683 0)
(-0.456598 1.04334 0)
(-0.572743 1.00129 0)
(-0.677095 0.906347 0)
(-0.769916 0.767869 0)
(-0.852166 0.590748 0)
(-0.924286 0.377371 0)
(-0.98522 0.129623 0)
(-1.03151 -0.148964 0)
(-1.05646 -0.450607 0)
(-1.04956 -0.759902 0)
(-0.996968 -1.04964 0)
(-0.884143 -1.27665 0)
(-0.701742 -1.38055 0)
(-0.457688 -1.2911 0)
(-0.202432 -0.952929 0)
(-0.0407593 -0.370103 0)
(-0.0198512 0.32096 0)
(-0.0944453 0.762109 0)
(-0.213819 1.02191 0)
(-0.337744 1.14042 0)
(-0.448424 1.15735 0)
(-0.542566 1.10253 0)
(-0.621706 0.995324 0)
(-0.689349 0.846599 0)
(-0.749499 0.661274 0)
(-0.805498 0.440666 0)
(-0.859101 0.184594 0)
(-0.909482 -0.106524 0)
(-0.952 -0.429068 0)
(-0.976756 -0.772448 0)
(-0.967587 -1.11344 0)
(-0.902827 -1.40863 0)
(-0.759927 -1.58705 0)
(-0.529764 -1.55061 0)
(-0.253982 -1.19804 0)
(-0.0565879 -0.489802 0)
(-0.0265035 0.375985 0)
(-0.112901 0.871296 0)
(-0.235469 1.14216 0)
(-0.346281 1.24909 0)
(-0.429441 1.24687 0)
(-0.487009 1.17356 0)
(-0.525559 1.05221 0)
(-0.552778 0.894864 0)
(-0.576209 0.706218 0)
(-0.602429 0.486419 0)
(-0.63644 0.233225 0)
(-0.680873 -0.0561919 0)
(-0.734642 -0.383102 0)
(-0.7908 -0.743735 0)
(-0.83383 -1.12299 0)
(-0.837405 -1.4837 0)
(-0.765252 -1.75155 0)
(-0.584317 -1.8023 0)
(-0.312407 -1.47384 0)
(-0.0788437 -0.643498 0)
(-0.0400037 0.447047 0)
(-0.146902 0.992391 0)
(-0.270639 1.25486 0)
(-0.355523 1.33104 0)
(-0.39279 1.29637 0)
(-0.394143 1.19753 0)
(-0.373298 1.06024 0)
(-0.342876 0.896666 0)
(-0.314004 0.710572 0)
(-0.296216 0.500763 0)
(-0.297499 0.26317 0)
(-0.324032 -0.00782553 0)
(-0.379154 -0.318148 0)
(-0.461089 -0.671702 0)
(-0.558958 -1.06494 0)
(-0.646995 -1.4747 0)
(-0.679031 -1.83546 0)
(-0.594989 -2.00804 0)
(-0.370493 -1.7624 0)
(-0.108902 -0.838389 0)
(-0.0657105 0.549445 0)
(-0.204736 1.13007 0)
(-0.318337 1.34894 0)
(-0.351034 1.36652 0)
(-0.313259 1.28361 0)
(-0.232423 1.15317 0)
(-0.130997 1.0005 0)
(-0.0262719 0.835545 0)
(0.0680742 0.659874 0)
(0.140844 0.47056 0)
(0.182352 0.26208 0)
(0.183903 0.0270279 0)
(0.138104 -0.243762 0)
(0.0404677 -0.560778 0)
(-0.106562 -0.933061 0)
(-0.285245 -1.35799 0)
(-0.449408 -1.79461 0)
(-0.51772 -2.11254 0)
(-0.407732 -2.02663 0)
(-0.144203 -1.08065 0)
(-0.108534 0.712082 0)
(-0.286044 1.28066 0)
(-0.348924 1.39346 0)
(-0.276076 1.31793 0)
(-0.119731 1.17501 0)
(0.0729668 1.01419 0)
(0.272885 0.853857 0)
(0.46123 0.698075 0)
(0.624889 0.544494 0)
(0.753773 0.388054 0)
(0.838929 0.222313 0)
(0.871331 0.0394778 0)
(0.841395 -0.17046 0)
(0.739287 -0.421191 0)
(0.557302 -0.731224 0)
(0.29778 -1.11989 0)
(-0.00901414 -1.58543 0)
(-0.2815 -2.04291 0)
(-0.376009 -2.20025 0)
(-0.167763 -1.37355 0)
(-0.155407 0.978361 0)
(-0.340044 1.40031 0)
(-0.237063 1.30631 0)
(0.0334952 1.11464 0)
(0.355054 0.923665 0)
(0.674806 0.75423 0)
(0.969772 0.608588 0)
(1.22806 0.481838 0)
(1.44286 0.367052 0)
(1.60923 0.257459 0)
(1.72205 0.146703 0)
(1.77468 0.0282225 0)
(1.75818 -0.106062 0)
(1.66035 -0.268155 0)
(1.4653 -0.47815 0)
(1.15679 -0.768797 0)
(0.731152 -1.18053 0)
(0.228156 -1.71315 0)
(-0.173244 -2.1592 0)
(-0.118895 -1.67477 0)
(-0.0475237 1.26936 0)
(-0.0719938 1.31674 0)
(0.411481 0.968877 0)
(0.958217 0.709488 0)
(1.4295 0.529298 0)
(1.82311 0.398386 0)
(2.14919 0.301112 0)
(2.41408 0.226111 0)
(2.62257 0.164566 0)
(2.77768 0.110097 0)
(2.87988 0.0579933 0)
(2.92674 0.00427656 0)
(2.91252 -0.0552935 0)
(2.82676 -0.127346 0)
(2.65161 -0.224366 0)
(2.35819 -0.373251 0)
(1.90163 -0.630325 0)
(1.22442 -1.0791 0)
(0.452776 -1.68836 0)
(0.21747 -1.7016 0)
(1.43816 0.707147 0)
(1.83557 0.62653 0)
(2.56317 0.398246 0)
(3.13722 0.251645 0)
(3.51159 0.16424 0)
(3.76877 0.109418 0)
(3.95631 0.0739938 0)
(4.09467 0.0502316 0)
(4.1948 0.0331169 0)
(4.26316 0.0195196 0)
(4.30282 0.00749083 0)
(4.3143 -0.00430731 0)
(4.29574 -0.0169536 0)
(4.24237 -0.0321706 0)
(4.14439 -0.0531746 0)
(3.98066 -0.0879749 0)
(3.70196 -0.158344 0)
(3.17393 -0.316132 0)
(2.29922 -0.622691 0)
(1.66805 -0.779777 0)
)
;

boundaryField
{
    movingWall
    {
        type            fixedValue;
        value           uniform (5.0735 0 0);
    }
    fixedWalls
    {
        type            noSlip;
    }
    frontAndBack
    {
        type            empty;
    }
}


// ************************************************************************* //
