/*--------------------------------*- C++ -*----------------------------------*\
  =========                 |
  \\      /  F ield         | OpenFOAM: The Open Source CFD Toolbox
   \\    /   O peration     | Website:  https://openfoam.org
    \\  /    A nd           | Version:  9
     \\/     M anipulation  |
\*---------------------------------------------------------------------------*/
FoamFile
{
    format      ascii;
    class       volVectorField;
    location    "0.08";
    object      U;
}
// * * * * * * * * * * * * * * * * * * * * * * * * * * * * * * * * * * * * * //

dimensions      [0 1 -1 0 0 0 0];

internalField   nonuniform List<vector> 
40
(
(-0.0772893 5.59057e-05 0)
(-0.0748052 -0.00138687 0)
(-0.068164 -0.00273177 0)
(-0.0578372 -0.00384756 0)
(-0.211242 -0.000850343 0)
(-0.20446 -0.00884534 0)
(-0.187597 -0.0163198 0)
(-0.16176 -0.0224946 0)
(-0.327778 -0.00322206 0)
(-0.317617 -0.0237683 0)
(-0.292811 -0.0430229 0)
(-0.25486 -0.0589781 0)
(-0.430352 -0.00644986 0)
(-0.418047 -0.0437411 0)
(-0.387293 -0.0788919 0)
(-0.339665 -0.108331 0)
(-0.525305 -0.00952737 0)
(-0.51242 -0.0669222 0)
(-0.477612 -0.121497 0)
(-0.422187 -0.167874 0)
(-0.616507 -0.0108666 0)
(-0.605004 -0.091449 0)
(-0.568284 -0.169002 0)
(-0.507062 -0.236234 0)
(-0.704838 -0.00857846 0)
(-0.696977 -0.115088 0)
(-0.660997 -0.219198 0)
(-0.596502 -0.311572 0)
(-0.788311 -0.000695806 0)
(-0.786336 -0.135238 0)
(-0.754075 -0.269187 0)
(-0.689673 -0.391247 0)
(-0.861832 0.0144403 0)
(-0.867692 -0.149249 0)
(-0.842409 -0.315426 0)
(-0.782311 -0.471518 0)
(-0.917058 0.0376925 0)
(-0.932084 -0.154643 0)
(-0.916979 -0.354049 0)
(-0.86616 -0.547319 0)
)
;

boundaryField
{
    movingWall
    {
        type            fixedValue;
        value           nonuniform List<vector> 0();
    }
    fixedWalls
    {
        type            noSlip;
    }
    frontAndBack
    {
        type            empty;
    }
    procBoundary5to2
    {
        type            processor;
        value           nonuniform List<vector> 8((-0.0755057 0.00134852 0) (-0.206127 0.00660974 0) (-0.319233 0.0162967 0) (-0.418681 0.0291805 0) (-0.509942 0.0452585 0) (-0.5962 0.0655935 0) (-0.678153 0.0914904 0) (-0.75407 0.124113 0));
    }
    procBoundary5to3
    {
        type            processor;
        value           nonuniform List<vector> 2((-0.819649 0.164069 0) (-0.86762 0.210933 0));
    }
    procBoundary5to6
    {
        type            processor;
        value           nonuniform List<vector> 4((-0.931516 0.0666608 0) (-0.955133 -0.149143 0) (-0.952493 -0.377582 0) (-0.916545 -0.606099 0));
    }
    procBoundary5to7
    {
        type            processor;
        value           nonuniform List<vector> 6((-0.0445216 -0.00455093 0) (-0.127984 -0.0262228 0) (-0.204252 -0.0686312 0) (-0.274977 -0.126505 0) (-0.345045 -0.197504 0) (-0.418807 -0.280906 0));
    }
    procBoundary5to8
    {
        type            processor;
        value           nonuniform List<vector> 4((-0.498946 -0.375898 0) (-0.585847 -0.48071 0) (-0.676627 -0.592227 0) (-0.765025 -0.705516 0));
    }
}


// ************************************************************************* //
