/*--------------------------------*- C++ -*----------------------------------*\
  =========                 |
  \\      /  F ield         | OpenFOAM: The Open Source CFD Toolbox
   \\    /   O peration     | Website:  https://openfoam.org
    \\  /    A nd           | Version:  9
     \\/     M anipulation  |
\*---------------------------------------------------------------------------*/
FoamFile
{
    format      ascii;
    class       surfaceScalarField;
    location    "0.065";
    object      phi;
}
// * * * * * * * * * * * * * * * * * * * * * * * * * * * * * * * * * * * * * //

dimensions      [0 3 -1 0 0 0 0];

internalField   nonuniform List<scalar> 
67
(
-2.79099e-05
-7.09491e-05
-1.91529e-05
-7.77982e-05
-7.7811e-06
-7.18477e-05
-3.76169e-05
-2.58015e-05
-4.1097e-05
-2.71206e-05
-5.6893e-05
-2.56916e-05
-7.2378e-05
-1.97563e-05
-8.37335e-05
-9.08301e-06
-8.25209e-05
-4.66999e-05
-9.49199e-06
-3.59524e-05
-1.49224e-05
-5.14626e-05
-1.86821e-05
-6.86183e-05
-1.78609e-05
-8.45548e-05
-1.00347e-05
-9.03471e-05
-5.67346e-05
1.58903e-05
-2.80324e-05
5.89569e-06
-4.1468e-05
-4.48507e-06
-5.82376e-05
-1.15216e-05
-7.75183e-05
-9.84137e-06
-9.20273e-05
-6.6576e-05
5.2344e-05
-1.77432e-05
3.79919e-05
-2.71159e-05
2.03074e-05
-4.05531e-05
2.54992e-06
-5.97608e-05
-6.8042e-06
-8.26732e-05
-7.33802e-05
0.000103451
-6.68887e-06
8.6913e-05
-1.05784e-05
6.36228e-05
-1.72628e-05
3.38749e-05
-3.00128e-05
5.16963e-06
-5.3968e-05
-6.82105e-05
0.000180033
0.000169454
0.000152191
0.000122178
6.82105e-05
)
;

boundaryField
{
    movingWall
    {
        type            calculated;
        value           uniform 0;
    }
    fixedWalls
    {
        type            calculated;
        value           uniform 0;
    }
    frontAndBack
    {
        type            empty;
        value           nonuniform List<scalar> 0();
    }
    procBoundary9to6
    {
        type            processor;
        value           nonuniform List<scalar> 6(2.34039e-05 4.34739e-06 -2.38103e-05 -6.26333e-05 -0.000114505 -0.000186721);
    }
    procBoundary9to8
    {
        type            processor;
        value           nonuniform List<scalar> 7(6.59345e-05 6.90412e-05 6.04759e-05 2.98358e-05 4.34947e-05 3.29244e-05 5.82121e-05);
    }
}


// ************************************************************************* //
