/*--------------------------------*- C++ -*----------------------------------*\
  =========                 |
  \\      /  F ield         | OpenFOAM: The Open Source CFD Toolbox
   \\    /   O peration     | Website:  https://openfoam.org
    \\  /    A nd           | Version:  8
     \\/     M anipulation  |
\*---------------------------------------------------------------------------*/
FoamFile
{
    version     2.0;
    format      ascii;
    class       volScalarField;
    location    "1";
    object      p;
}
// * * * * * * * * * * * * * * * * * * * * * * * * * * * * * * * * * * * * * //

dimensions      [0 2 -2 0 0 0 0];

internalField   nonuniform List<scalar> 
400
(
-0.0991297
-0.198067
-0.251185
-0.276547
-0.280172
-0.267955
-0.243016
-0.205943
-0.15938
-0.106318
-0.0489877
0.0104258
0.0691576
0.124066
0.172279
0.211748
0.24148
0.26146
0.272469
0.27613
-0.198455
-0.238909
-0.268421
-0.283559
-0.282538
-0.267682
-0.241342
-0.20421
-0.158472
-0.106483
-0.0500623
0.00876908
0.0672308
0.122049
0.170157
0.209336
0.238514
0.257621
0.267017
0.266666
-0.250126
-0.268325
-0.280122
-0.284518
-0.277186
-0.259837
-0.233769
-0.198677
-0.156106
-0.107835
-0.0550127
0.000902268
0.0573251
0.110754
0.157642
0.195342
0.222672
0.239775
0.247216
0.245466
-0.273119
-0.280614
-0.280616
-0.276419
-0.263793
-0.244666
-0.21992
-0.188427
-0.151103
-0.109113
-0.062694
-0.0123648
0.0397869
0.0901258
0.134554
0.169861
0.194614
0.20908
0.214168
0.210917
-0.27794
-0.27897
-0.271523
-0.260931
-0.243973
-0.223426
-0.200342
-0.173024
-0.141904
-0.107826
-0.070238
-0.0284842
0.0162672
0.0606343
0.10024
0.131487
0.152709
0.164083
0.16682
0.162352
-0.270252
-0.267546
-0.25564
-0.240962
-0.221027
-0.199653
-0.178554
-0.155666
-0.130916
-0.10535
-0.0782169
-0.0477405
-0.0136808
0.021525
0.053797
0.0794441
0.0965236
0.104824
0.105799
0.101058
-0.255682
-0.251745
-0.238179
-0.222137
-0.201171
-0.179885
-0.161093
-0.14268
-0.123584
-0.105503
-0.0886265
-0.0707206
-0.0498703
-0.0266901
-0.00402628
0.0148975
0.0278669
0.033866
0.0342895
0.0305741
-0.239556
-0.236714
-0.224423
-0.210214
-0.190908
-0.171186
-0.155235
-0.141843
-0.127787
-0.115104
-0.106256
-0.0999604
-0.0929403
-0.0832482
-0.0713903
-0.0593349
-0.0494684
-0.044127
-0.0426542
-0.0444012
-0.224304
-0.224816
-0.216809
-0.208132
-0.194362
-0.17902
-0.167068
-0.160618
-0.152836
-0.144207
-0.140065
-0.14199
-0.146589
-0.149284
-0.147378
-0.140738
-0.1317
-0.124486
-0.120301
-0.120285
-0.208157
-0.213712
-0.21267
-0.213342
-0.210227
-0.204439
-0.198557
-0.202349
-0.205223
-0.202617
-0.201337
-0.207233
-0.218812
-0.229925
-0.234607
-0.230043
-0.218176
-0.205591
-0.196877
-0.196454
-0.184978
-0.196116
-0.204566
-0.218321
-0.231625
-0.243982
-0.24794
-0.265286
-0.285138
-0.294785
-0.298699
-0.306404
-0.32007
-0.333999
-0.340071
-0.332828
-0.313371
-0.290697
-0.274364
-0.274152
-0.145606
-0.162182
-0.184253
-0.216043
-0.250834
-0.292913
-0.314235
-0.347393
-0.388302
-0.417302
-0.432434
-0.44373
-0.456951
-0.4688
-0.471137
-0.456707
-0.42493
-0.386151
-0.355644
-0.351612
-0.0812113
-0.104235
-0.147988
-0.207242
-0.266716
-0.347183
-0.397955
-0.450358
-0.511559
-0.562194
-0.593604
-0.612179
-0.624708
-0.631174
-0.626228
-0.602593
-0.556181
-0.495124
-0.438569
-0.418203
0.0129779
-0.0209271
-0.096486
-0.197848
-0.285849
-0.398391
-0.48703
-0.567024
-0.649123
-0.72084
-0.771144
-0.798832
-0.806776
-0.800735
-0.783654
-0.751244
-0.692864
-0.607122
-0.509617
-0.4523
0.138353
0.0835301
-0.0259506
-0.174895
-0.303315
-0.425739
-0.541334
-0.657741
-0.773926
-0.877407
-0.956844
-0.999181
-0.982991
-0.940743
-0.895922
-0.851568
-0.787683
-0.684271
-0.539113
-0.425276
0.302079
0.209072
0.0778679
-0.0842528
-0.265781
-0.397187
-0.527387
-0.68949
-0.874893
-1.05157
-1.18639
-1.23952
-1.18208
-1.0509
-0.917198
-0.825753
-0.753069
-0.651296
-0.479884
-0.309634
0.524822
0.382417
0.239042
0.11659
-0.0926338
-0.292116
-0.51522
-0.782512
-1.07115
-1.33292
-1.51535
-1.57594
-1.49555
-1.26296
-0.954122
-0.668362
-0.482785
-0.389786
-0.264992
-0.0885908
0.836841
0.689694
0.543146
0.366525
0.0751387
-0.269832
-0.665011
-1.06698
-1.41537
-1.67787
-1.84371
-1.90745
-1.85853
-1.66385
-1.27322
-0.694821
-0.131889
0.200145
0.247588
0.314961
1.4536
1.25468
0.951097
0.481617
-0.106542
-0.645221
-1.08588
-1.44508
-1.72981
-1.94079
-2.07985
-2.14684
-2.1323
-2.00796
-1.71867
-1.17835
-0.310461
0.604342
1.10213
1.19871
2.0986
1.62198
0.829672
-0.00160486
-0.584747
-1.00226
-1.34111
-1.6268
-1.8596
-2.03734
-2.15988
-2.22595
-2.22706
-2.14281
-1.94018
-1.57414
-0.94384
0.126496
1.46085
2.18818
)
;

boundaryField
{
    movingWall
    {
        type            zeroGradient;
    }
    fixedWalls
    {
        type            zeroGradient;
    }
    frontAndBack
    {
        type            empty;
    }
}


// ************************************************************************* //
