/*--------------------------------*- C++ -*----------------------------------*\
  =========                 |
  \\      /  F ield         | OpenFOAM: The Open Source CFD Toolbox
   \\    /   O peration     | Website:  https://openfoam.org
    \\  /    A nd           | Version:  8
     \\/     M anipulation  |
\*---------------------------------------------------------------------------*/
FoamFile
{
    version     2.0;
    format      ascii;
    class       surfaceScalarField;
    location    "1";
    object      phi;
}
// * * * * * * * * * * * * * * * * * * * * * * * * * * * * * * * * * * * * * //

dimensions      [0 3 -1 0 0 0 0];

internalField   nonuniform List<scalar> 
760
(
6.39747e-08
-6.41376e-08
-1.33837e-07
1.97812e-07
-6.01164e-07
4.6733e-07
-1.24927e-06
6.48108e-07
-1.98543e-06
7.36152e-07
-2.72859e-06
7.43166e-07
-3.40989e-06
6.81301e-07
-3.96997e-06
5.60079e-07
-4.35717e-06
3.87194e-07
-4.52874e-06
1.71573e-07
-4.45548e-06
-7.32575e-08
-4.1287e-06
-3.26781e-07
-3.56753e-06
-5.61167e-07
-2.82413e-06
-7.43403e-07
-1.98389e-06
-8.40237e-07
-1.15849e-06
-8.25398e-07
-4.70466e-07
-6.88028e-07
-2.98476e-08
-4.40618e-07
1.02147e-07
-1.31992e-07
1.02151e-07
-1.96187e-07
1.3204e-07
-9.65717e-07
9.67351e-07
-2.25579e-06
1.75741e-06
-3.90441e-06
2.29673e-06
-5.72561e-06
2.55735e-06
-7.54071e-06
2.55826e-06
-9.18829e-06
2.32888e-06
-1.05263e-05
1.89806e-06
-1.14335e-05
1.29441e-06
-1.1815e-05
5.5311e-07
-1.16121e-05
-2.76145e-07
-1.08151e-05
-1.12378e-06
-9.47598e-06
-1.90032e-06
-7.71576e-06
-2.50362e-06
-5.72222e-06
-2.83378e-06
-3.73296e-06
-2.81466e-06
-2.00188e-06
-2.41912e-06
-7.49921e-07
-1.69258e-06
-1.03253e-07
-7.78669e-07
-1.09855e-09
-5.05913e-07
6.37958e-07
-1.89153e-06
2.35297e-06
-3.96549e-06
3.83137e-06
-6.48748e-06
4.81871e-06
-9.20481e-06
5.27467e-06
-1.18754e-05
5.22889e-06
-1.42781e-05
4.73153e-06
-1.62165e-05
3.83651e-06
-1.75241e-05
2.60203e-06
-1.80721e-05
1.10105e-06
-1.77822e-05
-5.66018e-07
-1.66429e-05
-2.2631e-06
-1.47241e-05
-3.81908e-06
-1.21869e-05
-5.04085e-06
-9.28073e-06
-5.73996e-06
-6.32365e-06
-5.77173e-06
-3.6613e-06
-5.08147e-06
-1.60693e-06
-3.74695e-06
-3.71215e-07
-2.01439e-06
-3.72312e-07
-7.8908e-07
1.42704e-06
-2.76724e-06
4.33113e-06
-5.58514e-06
6.64927e-06
-8.90872e-06
8.14229e-06
-1.24227e-05
8.78869e-06
-1.58375e-05
8.64362e-06
-1.88916e-05
7.78567e-06
-2.13539e-05
6.29879e-06
-2.30271e-05
4.27522e-06
-2.37568e-05
1.83076e-06
-2.34455e-05
-8.7736e-07
-2.20701e-05
-3.63849e-06
-1.97006e-05
-6.18855e-06
-1.6514e-05
-8.22749e-06
-1.27969e-05
-9.457e-06
-8.93006e-06
-9.63858e-06
-5.34682e-06
-8.6647e-06
-2.46827e-06
-6.6255e-06
-6.25986e-07
-3.85667e-06
-9.98297e-07
-1.04135e-06
2.46839e-06
-3.56828e-06
6.85806e-06
-7.07999e-06
1.0161e-05
-1.11457e-05
1.2208e-05
-1.539e-05
1.3033e-05
-1.94848e-05
1.27385e-05
-2.31416e-05
1.14424e-05
-2.61065e-05
9.2637e-06
-2.81608e-05
6.32952e-06
-2.91274e-05
2.79734e-06
-2.88842e-05
-1.12059e-06
-2.73834e-05
-5.13928e-06
-2.46748e-05
-8.89714e-06
-2.09282e-05
-1.1974e-05
-1.64482e-05
-1.3937e-05
-1.16693e-05
-1.44175e-05
-7.12168e-06
-1.32124e-05
-3.3613e-06
-1.03859e-05
-8.7673e-07
-6.34124e-06
-1.87503e-06
-1.26623e-06
3.73462e-06
-4.29238e-06
9.88422e-06
-8.44037e-06
1.4309e-05
-1.31877e-05
1.69553e-05
-1.81043e-05
1.79496e-05
-2.28318e-05
1.7466e-05
-2.70647e-05
1.56753e-05
-3.05366e-05
1.27357e-05
-3.30141e-05
8.80704e-06
-3.42984e-05
4.08165e-06
-3.42363e-05
-1.18268e-06
-3.27405e-05
-6.63512e-06
-2.98183e-05
-1.18193e-05
-2.56068e-05
-1.61856e-05
-2.0405e-05
-1.91388e-05
-1.46906e-05
-2.01318e-05
-9.10002e-06
-1.8803e-05
-4.35674e-06
-1.51292e-05
-1.15135e-06
-9.54662e-06
-3.02638e-06
-1.46603e-06
5.20065e-06
-4.93883e-06
1.3357e-05
-9.65715e-06
1.90273e-05
-1.50152e-05
2.23133e-05
-2.05363e-05
2.34706e-05
-2.58411e-05
2.27709e-05
-3.06184e-05
2.04526e-05
-3.45997e-05
1.6717e-05
-3.75449e-05
1.17522e-05
-3.92364e-05
5.77317e-06
-3.94857e-05
-9.33384e-07
-3.81523e-05
-7.96851e-06
-3.51782e-05
-1.47934e-05
-3.06364e-05
-2.07274e-05
-2.47879e-05
-2.49872e-05
-1.81301e-05
-2.67897e-05
-1.14053e-05
-2.55277e-05
-5.53817e-06
-2.09963e-05
-1.48218e-06
-1.36026e-05
-4.50856e-06
-1.64143e-06
6.84208e-06
-5.50465e-06
1.72202e-05
-1.07158e-05
2.42385e-05
-1.65941e-05
2.81917e-05
-2.26254e-05
2.95019e-05
-2.84217e-05
2.85672e-05
-3.3679e-05
2.57098e-05
-3.81407e-05
2.11788e-05
-4.15722e-05
1.51837e-05
-4.37455e-05
7.94647e-06
-4.44384e-05
-2.40439e-07
-4.34494e-05
-8.95754e-06
-4.06338e-05
-1.76091e-05
-3.59652e-05
-2.5396e-05
-2.96204e-05
-3.13321e-05
-2.20708e-05
-3.43392e-05
-1.41435e-05
-3.3455e-05
-6.98916e-06
-2.81507e-05
-1.90322e-06
-1.86885e-05
-6.41178e-06
-1.79321e-06
8.6353e-06
-5.98783e-06
2.14149e-05
-1.16004e-05
2.9851e-05
-1.78798e-05
3.4471e-05
-2.42848e-05
3.59069e-05
-3.04333e-05
3.47157e-05
-3.60458e-05
3.13224e-05
-4.08964e-05
2.60293e-05
-4.4774e-05
1.90612e-05
-4.7457e-05
1.06295e-05
-4.87013e-05
1.00393e-06
-4.82468e-05
-9.41209e-06
-4.58487e-05
-2.00072e-05
-4.13458e-05
-2.98988e-05
-3.47711e-05
-3.79068e-05
-2.64971e-05
-4.26133e-05
-1.73758e-05
-4.25763e-05
-8.78399e-06
-3.67425e-05
-2.45009e-06
-2.50224e-05
-8.86187e-06
-1.92665e-06
1.05619e-05
-6.39669e-06
2.58849e-05
-1.23055e-05
3.57598e-05
-1.88304e-05
4.0996e-05
-2.54145e-05
4.2491e-05
-3.17002e-05
4.10013e-05
-3.74549e-05
3.70772e-05
-4.25071e-05
3.10815e-05
-4.66953e-05
2.32494e-05
-4.98304e-05
1.37646e-05
-5.16713e-05
2.84483e-06
-5.1917e-05
-9.16636e-06
-5.02253e-05
-2.16989e-05
-4.62743e-05
-3.38498e-05
-3.9888e-05
-4.4293e-05
-3.12364e-05
-5.1265e-05
-2.10836e-05
-5.2729e-05
-1.09773e-05
-4.68488e-05
-3.16146e-06
-3.28383e-05
-1.20233e-05
-2.05873e-06
1.26207e-05
-6.7651e-06
3.05913e-05
-1.28552e-05
4.18499e-05
-1.94262e-05
4.7567e-05
-2.59203e-05
4.89851e-05
-3.20303e-05
4.71113e-05
-3.75995e-05
4.26464e-05
-4.25407e-05
3.60227e-05
-4.67734e-05
2.74821e-05
-5.01764e-05
1.71675e-05
-5.25498e-05
5.21817e-06
-5.35892e-05
-8.12695e-06
-5.28811e-05
-2.24069e-05
-4.99408e-05
-3.67901e-05
-4.43287e-05
-4.99051e-05
-3.58881e-05
-5.97055e-05
-2.51179e-05
-6.34993e-05
-1.35868e-05
-5.83799e-05
-4.0812e-06
-4.23439e-05
-1.61045e-05
-2.22975e-06
1.48504e-05
-7.17342e-06
3.5535e-05
-1.33249e-05
4.80014e-05
-1.96867e-05
5.39288e-05
-2.57277e-05
5.50261e-05
-3.12298e-05
5.26134e-05
-3.61501e-05
4.75667e-05
-4.05203e-05
4.03929e-05
-4.43761e-05
3.1338e-05
-4.77034e-05
2.04949e-05
-5.03913e-05
7.90603e-06
-5.2188e-05
-6.33028e-06
-5.2665e-05
-2.19299e-05
-5.12109e-05
-3.82442e-05
-4.7104e-05
-5.4012e-05
-3.9744e-05
-6.70655e-05
-2.91281e-05
-7.41152e-05
-1.6561e-05
-7.09471e-05
-5.26028e-06
-5.36446e-05
-2.13648e-05
-2.52197e-06
1.73724e-05
-7.7741e-06
4.07871e-05
-1.3856e-05
5.40833e-05
-1.96707e-05
5.97435e-05
-2.47707e-05
6.01261e-05
-2.90898e-05
5.69324e-05
-3.27483e-05
5.12252e-05
-3.59349e-05
4.35795e-05
-3.88335e-05
3.42366e-05
-4.15727e-05
2.3234e-05
-4.41779e-05
1.05112e-05
-4.65156e-05
-3.99254e-06
-4.82263e-05
-2.02193e-05
-4.86582e-05
-3.78123e-05
-4.68555e-05
-5.58147e-05
-4.17109e-05
-7.22101e-05
-3.24666e-05
-8.33594e-05
-1.97219e-05
-8.36918e-05
-6.7551e-06
-6.66114e-05
-2.81199e-05
-3.08955e-06
2.0462e-05
-8.81411e-06
4.65116e-05
-1.46397e-05
5.9909e-05
-1.94185e-05
6.45223e-05
-2.29084e-05
6.36159e-05
-2.52951e-05
5.93192e-05
-2.69264e-05
5.28565e-05
-2.81832e-05
4.48362e-05
-2.94182e-05
3.54716e-05
-3.09214e-05
2.47373e-05
-3.28861e-05
1.24759e-05
-3.53543e-05
-1.52433e-06
-3.81311e-05
-1.74425e-05
-4.06583e-05
-3.5285e-05
-4.1886e-05
-5.4587e-05
-4.02549e-05
-7.38413e-05
-3.40681e-05
-8.95462e-05
-2.26612e-05
-9.50987e-05
-8.60995e-06
-8.06626e-05
-3.67298e-05
-4.19958e-06
2.46615e-05
-1.06193e-05
5.29314e-05
-1.5793e-05
6.50826e-05
-1.87403e-05
6.74697e-05
-1.96678e-05
6.45434e-05
-1.91616e-05
5.8813e-05
-1.78661e-05
5.1561e-05
-1.63742e-05
4.33443e-05
-1.52012e-05
3.42987e-05
-1.47853e-05
2.43214e-05
-1.54823e-05
1.31729e-05
-1.75337e-05
5.27049e-07
-2.09847e-05
-1.39915e-05
-2.55258e-05
-3.07439e-05
-3.02463e-05
-4.98665e-05
-3.33725e-05
-7.07151e-05
-3.22919e-05
-9.06268e-05
-2.45449e-05
-0.000102846
-1.07829e-05
-9.44247e-05
-4.75127e-05
-6.24534e-06
3.09069e-05
-1.34023e-05
6.00883e-05
-1.69203e-05
6.86006e-05
-1.6634e-05
6.71835e-05
-1.36246e-05
6.1534e-05
-9.04958e-06
5.42379e-05
-3.88334e-06
4.63948e-05
1.10088e-06
3.83601e-05
5.28374e-06
3.01158e-05
8.14359e-06
2.14615e-05
9.21994e-06
1.20966e-05
8.10723e-06
1.63976e-06
4.50402e-06
-1.03883e-05
-1.64847e-06
-2.45914e-05
-9.8609e-06
-4.16541e-05
-1.8589e-05
-6.1987e-05
-2.47036e-05
-8.45122e-05
-2.37409e-05
-0.000103808
-1.29088e-05
-0.000105257
-6.04215e-05
-9.55884e-06
4.04657e-05
-1.6422e-05
6.69515e-05
-1.58165e-05
6.79951e-05
-9.88567e-06
6.12526e-05
-1.12397e-06
5.27723e-05
8.70338e-06
4.44106e-05
1.84166e-05
3.66816e-05
2.72188e-05
2.95579e-05
3.45333e-05
2.28013e-05
3.98855e-05
1.61094e-05
4.28255e-05
9.15656e-06
4.28853e-05
1.57996e-06
3.95772e-05
-7.08029e-06
3.24572e-05
-1.74714e-05
2.13692e-05
-3.0566e-05
7.04717e-06
-4.7665e-05
-7.76983e-06
-6.96952e-05
-1.72089e-05
-9.43693e-05
-1.37582e-05
-0.000108707
-7.41797e-05
-1.34263e-05
5.3892e-05
-1.50749e-05
6.86001e-05
-5.09288e-06
5.80131e-05
9.81274e-06
4.6347e-05
2.584e-05
3.67451e-05
4.12053e-05
2.90453e-05
5.50287e-05
2.28581e-05
6.68466e-05
1.774e-05
7.63705e-05
1.32773e-05
8.33494e-05
9.13051e-06
8.74889e-05
5.01703e-06
8.83972e-05
6.71628e-07
8.55492e-05
-4.23223e-06
7.82389e-05
-1.01612e-05
6.56382e-05
-1.79653e-05
4.71676e-05
-2.91944e-05
2.37813e-05
-4.63089e-05
7.07044e-07
-7.12951e-05
-1.02154e-05
-9.77851e-05
-8.43951e-05
-9.40439e-06
6.32964e-05
8.82397e-06
5.03717e-05
3.51776e-05
3.16595e-05
6.0027e-05
2.14976e-05
8.1469e-05
1.53031e-05
9.94327e-05
1.10816e-05
0.000114177
8.11394e-06
0.000125985
5.93164e-06
0.000135063
4.20006e-06
0.000141493
2.69986e-06
0.000145226
1.28373e-06
0.000146056
-1.57742e-07
0.00014359
-1.76675e-06
0.000137129
-3.69959e-06
0.0001255
-6.33665e-06
0.000106855
-1.05497e-05
7.90461e-05
-1.84995e-05
4.2274e-05
-3.4523e-05
6.89238e-06
-6.24034e-05
-7.75027e-05
6.32964e-05
0.000113668
0.000145328
0.000166825
0.000182128
0.00019321
0.000201324
0.000207255
0.000211456
0.000214155
0.000215439
0.000215281
0.000213515
0.000209815
0.000203478
0.000192929
0.000174429
0.000139906
7.75027e-05
)
;

boundaryField
{
    movingWall
    {
        type            calculated;
        value           uniform 0;
    }
    fixedWalls
    {
        type            calculated;
        value           uniform 0;
    }
    frontAndBack
    {
        type            empty;
        value           nonuniform List<scalar> 0();
    }
}


// ************************************************************************* //
