/*--------------------------------*- C++ -*----------------------------------*\
  =========                 |
  \\      /  F ield         | OpenFOAM: The Open Source CFD Toolbox
   \\    /   O peration     | Website:  https://openfoam.org
    \\  /    A nd           | Version:  8
     \\/     M anipulation  |
\*---------------------------------------------------------------------------*/
FoamFile
{
    version     2.0;
    format      ascii;
    class       volVectorField;
    location    "1";
    object      U;
}
// * * * * * * * * * * * * * * * * * * * * * * * * * * * * * * * * * * * * * //

dimensions      [0 1 -1 0 0 0 0];

internalField   nonuniform List<vector> 
400
(
(0.00120352 -0.00120761 0)
(0.000401417 0.000672766 0)
(-0.00644912 0.00286667 0)
(-0.017963 0.00433939 0)
(-0.0321651 0.00506799 0)
(-0.0472835 0.00518415 0)
(-0.0618134 0.00480473 0)
(-0.0744732 0.00400629 0)
(-0.0841495 0.00283656 0)
(-0.089885 0.00134513 0)
(-0.0909377 -0.000383528 0)
(-0.0869022 -0.00220655 0)
(-0.0778615 -0.00391534 0)
(-0.0645216 -0.00525129 0)
(-0.0482751 -0.00594434 0)
(-0.0311412 -0.0057717 0)
(-0.015543 -0.00462757 0)
(-0.00390908 -0.0025938 0)
(0.00189094 -8.6829e-05 0)
(0.00157664 0.00152392 0)
(-0.000622967 -0.000512242 0)
(-0.00896086 0.00883682 0)
(-0.030047 0.0183977 0)
(-0.0603667 0.0249781 0)
(-0.0959519 0.0282306 0)
(-0.133129 0.0284612 0)
(-0.168487 0.0260661 0)
(-0.198974 0.0213915 0)
(-0.221939 0.014746 0)
(-0.235185 0.00649702 0)
(-0.237123 -0.00281611 0)
(-0.227013 -0.0124059 0)
(-0.205236 -0.0212285 0)
(-0.173512 -0.0280682 0)
(-0.134974 -0.0317181 0)
(-0.0939922 -0.0312445 0)
(-0.0556543 -0.0262973 0)
(-0.0249147 -0.0174081 0)
(-0.00569916 -0.00641398 0)
(0.000312179 0.00208189 0)
(-0.0030744 0.00649509 0)
(-0.0200991 0.0303217 0)
(-0.055561 0.0520597 0)
(-0.102959 0.0668816 0)
(-0.156611 0.0739741 0)
(-0.211634 0.0737652 0)
(-0.263402 0.0670139 0)
(-0.307708 0.054515 0)
(-0.340889 0.0370984 0)
(-0.35994 0.0157984 0)
(-0.362727 -0.00794363 0)
(-0.34828 -0.0321442 0)
(-0.31713 -0.054288 0)
(-0.271571 -0.071528 0)
(-0.215761 -0.0810957 0)
(-0.155519 -0.0808946 0)
(-0.0976807 -0.0701927 0)
(-0.0490317 -0.0502647 0)
(-0.0155758 -0.0250253 0)
(-0.00167156 -0.00260547 0)
(-0.00527022 0.0195436 0)
(-0.0305589 0.0642147 0)
(-0.0798512 0.101394 0)
(-0.143208 0.125914 0)
(-0.213145 0.136977 0)
(-0.283808 0.135332 0)
(-0.349734 0.122214 0)
(-0.405968 0.0989769 0)
(-0.448187 0.0671073 0)
(-0.472822 0.0284816 0)
(-0.477283 -0.0143385 0)
(-0.460281 -0.0579085 0)
(-0.422216 -0.0979212 0)
(-0.365516 -0.12952 0)
(-0.294849 -0.147953 0)
(-0.217026 -0.149535 0)
(-0.140373 -0.132804 0)
(-0.0735979 -0.0995738 0)
(-0.025333 -0.0557401 0)
(-0.00346027 -0.0125706 0)
(-0.00717058 0.0379557 0)
(-0.0400084 0.109498 0)
(-0.102214 0.164985 0)
(-0.180426 0.200141 0)
(-0.265354 0.214906 0)
(-0.35029 0.210739 0)
(-0.429177 0.189543 0)
(-0.496578 0.153321 0)
(-0.547745 0.104271 0)
(-0.578673 0.0451414 0)
(-0.586297 -0.0203486 0)
(-0.568825 -0.0872259 0)
(-0.526175 -0.149246 0)
(-0.460456 -0.199269 0)
(-0.376388 -0.230115 0)
(-0.281454 -0.235919 0)
(-0.185453 -0.213824 0)
(-0.0993825 -0.165597 0)
(-0.0352226 -0.098739 0)
(-0.00510893 -0.0275178 0)
(-0.00883318 0.0611387 0)
(-0.0484814 0.165267 0)
(-0.122507 0.241879 0)
(-0.214363 0.288585 0)
(-0.31306 0.306812 0)
(-0.411165 0.299197 0)
(-0.502218 0.268563 0)
(-0.58052 0.217658 0)
(-0.641077 0.14937 0)
(-0.679538 0.0672404 0)
(-0.692316 -0.0239711 0)
(-0.676897 -0.117848 0)
(-0.63234 -0.206186 0)
(-0.55993 -0.279326 0)
(-0.463913 -0.32713 0)
(-0.352065 -0.340702 0)
(-0.235601 -0.314751 0)
(-0.128236 -0.250039 0)
(-0.0461917 -0.155149 0)
(-0.00687141 -0.0476137 0)
(-0.0102982 0.0885691 0)
(-0.0560223 0.230517 0)
(-0.140646 0.330893 0)
(-0.244732 0.390031 0)
(-0.355767 0.411574 0)
(-0.465757 0.399848 0)
(-0.568049 0.358875 0)
(-0.65691 0.292227 0)
(-0.727296 0.203414 0)
(-0.774631 0.0965751 0)
(-0.7948 -0.0227499 0)
(-0.784397 -0.146959 0)
(-0.741252 -0.266021 0)
(-0.665271 -0.367624 0)
(-0.559551 -0.438105 0)
(-0.431535 -0.464459 0)
(-0.29355 -0.437473 0)
(-0.162317 -0.355407 0)
(-0.0593936 -0.227058 0)
(-0.00904551 -0.0736456 0)
(-0.0115853 0.119752 0)
(-0.0626402 0.30416 0)
(-0.156494 0.430601 0)
(-0.271079 0.502896 0)
(-0.392551 0.527634 0)
(-0.512563 0.511369 0)
(-0.624524 0.459625 0)
(-0.722946 0.376884 0)
(-0.803006 0.267156 0)
(-0.860121 0.134893 0)
(-0.889762 -0.0139872 0)
(-0.887581 -0.171145 0)
(-0.8499 -0.325088 0)
(-0.774679 -0.460922 0)
(-0.663019 -0.561001 0)
(-0.521044 -0.606995 0)
(-0.361391 -0.583796 0)
(-0.203696 -0.484866 0)
(-0.0760562 -0.317592 0)
(-0.0119593 -0.107077 0)
(-0.0127149 0.154198 0)
(-0.0683631 0.385029 0)
(-0.169934 0.539318 0)
(-0.292867 0.625118 0)
(-0.422157 0.652753 0)
(-0.549355 0.631603 0)
(-0.668258 0.569046 0)
(-0.773988 0.470562 0)
(-0.862321 0.340528 0)
(-0.929024 0.183366 0)
(-0.969455 0.00484217 0)
(-0.978491 -0.186613 0)
(-0.950866 -0.378696 0)
(-0.882128 -0.554374 0)
(-0.770437 -0.691885 0)
(-0.619191 -0.766448 0)
(-0.439818 -0.754652 0)
(-0.254019 -0.641789 0)
(-0.0974391 -0.430816 0)
(-0.0159948 -0.150075 0)
(-0.0137548 0.19146 0)
(-0.0733814 0.471941 0)
(-0.181093 0.655071 0)
(-0.309733 0.753986 0)
(-0.443265 0.783691 0)
(-0.573452 0.757112 0)
(-0.694903 0.683885 0)
(-0.803821 0.570622 0)
(-0.897078 0.421942 0)
(-0.971314 0.241876 0)
(-1.0223 0.0354484 0)
(-1.0446 -0.189647 0)
(-1.03161 -0.421283 0)
(-0.976295 -0.641234 0)
(-0.872995 -0.82412 0)
(-0.720671 -0.938063 0)
(-0.527147 -0.948806 0)
(-0.314068 -0.828842 0)
(-0.124821 -0.571428 0)
(-0.0216394 -0.205558 0)
(-0.0149003 0.231285 0)
(-0.0782867 0.563873 0)
(-0.190693 0.775642 0)
(-0.321874 0.885988 0)
(-0.454858 0.915891 0)
(-0.582083 0.882721 0)
(-0.699538 0.798856 0)
(-0.805095 0.672205 0)
(-0.897331 0.507547 0)
(-0.974426 0.308206 0)
(-1.03331 0.0778742 0)
(-1.069 -0.177404 0)
(-1.07427 -0.446962 0)
(-1.03982 -0.712936 0)
(-0.955724 -0.947751 0)
(-0.814774 -1.11284 0)
(-0.617988 -1.16108 0)
(-0.38307 -1.04649 0)
(-0.159452 -0.744158 0)
(-0.0295667 -0.277288 0)
(-0.0166108 0.273948 0)
(-0.0844293 0.660344 0)
(-0.200505 0.898672 0)
(-0.330444 1.01665 0)
(-0.456537 1.04314 0)
(-0.572663 1.0011 0)
(-0.676995 0.906158 0)
(-0.769796 0.767694 0)
(-0.852024 0.590596 0)
(-0.924122 0.377253 0)
(-0.985034 0.129549 0)
(-1.0313 -0.148981 0)
(-1.05623 -0.450555 0)
(-1.04932 -0.759772 0)
(-0.996729 -1.04943 0)
(-0.88392 -1.27637 0)
(-0.701556 -1.38022 0)
(-0.457562 -1.29079 0)
(-0.202374 -0.952695 0)
(-0.0407477 -0.370015 0)
(-0.0198492 0.320904 0)
(-0.0944357 0.761978 0)
(-0.213796 1.02173 0)
(-0.337706 1.14022 0)
(-0.448371 1.15713 0)
(-0.542499 1.10232 0)
(-0.621624 0.995116 0)
(-0.689252 0.846405 0)
(-0.749386 0.661103 0)
(-0.805368 0.440527 0)
(-0.858951 0.184498 0)
(-0.909312 -0.106562 0)
(-0.951809 -0.429034 0)
(-0.976546 -0.772329 0)
(-0.967365 -1.11323 0)
(-0.902606 -1.40833 0)
(-0.75973 -1.58668 0)
(-0.529618 -1.55022 0)
(-0.253909 -1.19773 0)
(-0.056571 -0.48968 0)
(-0.026501 0.375924 0)
(-0.11289 0.871153 0)
(-0.235446 1.14197 0)
(-0.346246 1.24888 0)
(-0.429396 1.24665 0)
(-0.486955 1.17333 0)
(-0.525498 1.05199 0)
(-0.552709 0.894658 0)
(-0.576133 0.706033 0)
(-0.602343 0.486264 0)
(-0.636342 0.233112 0)
(-0.68076 -0.0562498 0)
(-0.734511 -0.383089 0)
(-0.790646 -0.743636 0)
(-0.833655 -1.12279 0)
(-0.837215 -1.4834 0)
(-0.765063 -1.75115 0)
(-0.584161 -1.80186 0)
(-0.312317 -1.47346 0)
(-0.0788198 -0.643332 0)
(-0.0399994 0.446978 0)
(-0.146887 0.992237 0)
(-0.270611 1.25466 0)
(-0.355486 1.33082 0)
(-0.392749 1.29614 0)
(-0.394101 1.1973 0)
(-0.373258 1.06002 0)
(-0.34284 0.896457 0)
(-0.313972 0.710383 0)
(-0.296186 0.500602 0)
(-0.297469 0.263047 0)
(-0.323996 -0.00789756 0)
(-0.379107 -0.318155 0)
(-0.461022 -0.671627 0)
(-0.558863 -1.06477 0)
(-0.646868 -1.47441 0)
(-0.678881 -1.83506 0)
(-0.594842 -2.00756 0)
(-0.37039 -1.76194 0)
(-0.10887 -0.838167 0)
(-0.0657018 0.549365 0)
(-0.204709 1.1299 0)
(-0.318296 1.34873 0)
(-0.350988 1.36629 0)
(-0.313218 1.28338 0)
(-0.232393 1.15294 0)
(-0.130982 1.00029 0)
(-0.0262754 0.835347 0)
(0.0680518 0.659695 0)
(0.140804 0.470407 0)
(0.182299 0.26196 0)
(0.183842 0.0269523 0)
(0.138043 -0.243782 0)
(0.04042 -0.560727 0)
(-0.106581 -0.932922 0)
(-0.285223 -1.35774 0)
(-0.449336 -1.79423 0)
(-0.517612 -2.11205 0)
(-0.407629 -2.02612 0)
(-0.144163 -1.08036 0)
(-0.108516 0.711979 0)
(-0.285997 1.28047 0)
(-0.348862 1.39324 0)
(-0.27602 1.3177 0)
(-0.119695 1.1748 0)
(0.0729735 1.01399 0)
(0.272858 0.853669 0)
(0.461166 0.697904 0)
(0.624789 0.544341 0)
(0.753639 0.387924 0)
(0.838766 0.222212 0)
(0.871146 0.0394118 0)
(0.841199 -0.170483 0)
(0.739095 -0.421159 0)
(0.557134 -0.731124 0)
(0.297659 -1.1197 0)
(-0.00906582 -1.58512 0)
(-0.281474 -2.04246 0)
(-0.375933 -2.19972 0)
(-0.167723 -1.37319 0)
(-0.155375 0.978211 0)
(-0.339971 1.40009 0)
(-0.236993 1.30609 0)
(0.0335308 1.11445 0)
(0.355041 0.923488 0)
(0.674738 0.754072 0)
(0.969649 0.608447 0)
(1.22788 0.481713 0)
(1.44263 0.366944 0)
(1.60896 0.25737 0)
(1.72173 0.146634 0)
(1.77433 0.0281785 0)
(1.75782 -0.106077 0)
(1.65998 -0.268134 0)
(1.46495 -0.478086 0)
(1.15648 -0.768672 0)
(0.730927 -1.18032 0)
(0.228044 -1.7128 0)
(-0.173242 -2.1587 0)
(-0.11888 -1.67435 0)
(-0.0474942 1.26914 0)
(-0.0719435 1.31651 0)
(0.411458 0.968707 0)
(0.958105 0.709354 0)
(1.42931 0.529188 0)
(1.82284 0.398295 0)
(2.14885 0.301036 0)
(2.41368 0.226047 0)
(2.62211 0.164514 0)
(2.77717 0.110055 0)
(2.87933 0.0579637 0)
(2.92616 0.00426002 0)
(2.91193 -0.0552958 0)
(2.82616 -0.127332 0)
(2.65103 -0.224332 0)
(2.35766 -0.373191 0)
(1.90117 -0.630217 0)
(1.22409 -1.07889 0)
(0.452622 -1.688 0)
(0.217392 -1.70121 0)
(1.43788 0.70701 0)
(1.83524 0.626409 0)
(2.56271 0.398164 0)
(3.13665 0.251589 0)
(3.51094 0.1642 0)
(3.76806 0.109388 0)
(3.95556 0.0739719 0)
(4.09388 0.0502152 0)
(4.19398 0.0331047 0)
(4.26231 0.019511 0)
(4.30195 0.00748562 0)
(4.31342 -0.00430881 0)
(4.29486 -0.0169515 0)
(4.2415 -0.0321646 0)
(4.14354 -0.0531642 0)
(3.97984 -0.0879592 0)
(3.70118 -0.158319 0)
(3.17325 -0.316081 0)
(2.29871 -0.622574 0)
(1.66768 -0.779615 0)
)
;

boundaryField
{
    movingWall
    {
        type            fixedValue;
        value           uniform (5.07246 0 0);
    }
    fixedWalls
    {
        type            noSlip;
    }
    frontAndBack
    {
        type            empty;
    }
}


// ************************************************************************* //
