/*--------------------------------*- C++ -*----------------------------------*\
| =========                 |                                                 |
| \\      /  F ield         | OpenFOAM: The Open Source CFD Toolbox           |
|  \\    /   O peration     | Version:  2212                                  |
|   \\  /    A nd           | Website:  www.openfoam.com                      |
|    \\/     M anipulation  |                                                 |
\*---------------------------------------------------------------------------*/
FoamFile
{
    version     2.0;
    format      ascii;
    arch        "LSB;label=32;scalar=64";
    class       volVectorField;
    location    "0.5";
    object      U;
}
// * * * * * * * * * * * * * * * * * * * * * * * * * * * * * * * * * * * * * //

dimensions      [0 1 -1 0 0 0 0];

internalField   nonuniform List<vector> 
45
(
(0.358535 0 0)
(0.380613 0 0)
(0.394937 0 0)
(0.420472 0 0)
(0.443625 0 0)
(0.458453 0 0)
(0.465685 0 0)
(0.465684 0 0)
(0.458451 0 0)
(0.443622 0 0)
(0.491815 0 0)
(0.514968 0 0)
(0.529572 0 0)
(0.536633 0 0)
(0.536632 0 0)
(0.529571 0 0)
(0.514965 0 0)
(0.573293 0 0)
(0.594863 0 0)
(0.608241 0 0)
(0.614647 0 0)
(0.614647 0 0)
(0.60824 0 0)
(0.594861 0 0)
(0.665017 0 0)
(0.682954 0 0)
(0.693887 0 0)
(0.699072 0 0)
(0.699072 0 0)
(0.693886 0 0)
(0.682953 0 0)
(0.766004 0 0)
(0.778054 0 0)
(0.785284 0 0)
(0.788685 0 0)
(0.788685 0 0)
(0.785284 0 0)
(0.778053 0 0)
(0.8737 0 0)
(0.877974 0 0)
(0.880513 0 0)
(0.881701 0 0)
(0.881701 0 0)
(0.880513 0 0)
(0.877974 0 0)
)
;

boundaryField
{
    movingWall
    {
        type            fixedValue;
        value           uniform (0.928803 0 0);
    }
    fixedWalls
    {
        type            noSlip;
    }
    frontAndBack
    {
        type            empty;
    }
    procBoundary7to3
    {
        type            processor;
        value           uniform (0.305005 0 0);
    }
    procBoundary7to4
    {
        type            processor;
        value           nonuniform List<vector> 7((0.325366 0 0) (0.338719 0 0) (0.401978 0 0) (0.401978 0 0) (0.401979 0 0) (0.394938 0 0) (0.380612 0 0));
    }
    procBoundary7to6
    {
        type            processor;
        value           nonuniform List<vector> 7((0.32806 0 0) (0.387922 0 0) (0.458535 0 0) (0.541481 0 0) (0.637821 0 0) (0.747246 0 0) (0.866918 0 0));
    }
    procBoundary7to8
    {
        type            processor;
        value           nonuniform List<vector> 6((0.420472 0 0) (0.491815 0 0) (0.573292 0 0) (0.665017 0 0) (0.766004 0 0) (0.8737 0 0));
    }
}


// ************************************************************************* //
