/*--------------------------------*- C++ -*----------------------------------*\
  =========                 |
  \\      /  F ield         | OpenFOAM: The Open Source CFD Toolbox
   \\    /   O peration     | Website:  https://openfoam.org
    \\  /    A nd           | Version:  9
     \\/     M anipulation  |
\*---------------------------------------------------------------------------*/
FoamFile
{
    format      ascii;
    class       surfaceScalarField;
    location    "0.055";
    object      phi;
}
// * * * * * * * * * * * * * * * * * * * * * * * * * * * * * * * * * * * * * //

dimensions      [0 3 -1 0 0 0 0];

internalField   nonuniform List<scalar> 
67
(
2.28913e-08
-2.76283e-08
-2.52954e-07
2.75845e-07
-6.71316e-07
4.1836e-07
-1.19319e-06
5.21877e-07
5.57346e-07
-1.97998e-07
1.70369e-07
-9.22241e-07
1.00009e-06
-2.00878e-06
1.5049e-06
-3.28828e-06
1.80138e-06
1.9133e-06
-5.24883e-07
6.95251e-07
-1.71968e-06
2.19488e-06
-3.35615e-06
3.14137e-06
-5.23743e-06
3.68266e-06
3.87685e-06
-7.62107e-07
1.45736e-06
-2.41358e-06
3.84636e-06
-4.57125e-06
5.29903e-06
-6.99667e-06
6.10808e-06
6.37261e-06
-9.63368e-07
2.42072e-06
-3.01619e-06
5.89918e-06
-5.65125e-06
7.93409e-06
-8.57565e-06
9.03248e-06
9.35533e-06
-1.13722e-06
3.55794e-06
-3.55081e-06
8.31278e-06
-6.62196e-06
1.10052e-05
-1.00041e-05
1.24147e-05
1.27902e-05
-1.29416e-06
4.8521e-06
-4.03843e-06
1.1057e-05
-7.51328e-06
1.44801e-05
-1.13205e-05
1.62218e-05
1.66483e-05
-1.44824e-06
-4.52229e-06
-8.39107e-06
-1.26126e-05
)
;

boundaryField
{
    movingWall
    {
        type            calculated;
        value           nonuniform List<scalar> 0();
    }
    fixedWalls
    {
        type            calculated;
        value           uniform 0;
    }
    frontAndBack
    {
        type            empty;
        value           nonuniform List<scalar> 0();
    }
    procBoundary0to1
    {
        type            processor;
        value           nonuniform List<scalar> 5(6.30034e-06 1.41311e-05 1.83489e-05 2.04433e-05 2.09267e-05);
    }
    procBoundary0to2
    {
        type            processor;
        value           nonuniform List<scalar> 8(-1.75054e-06 -4.64423e-06 -7.20097e-06 -9.49243e-06 -1.15584e-05 -1.3439e-05 -1.51785e-05 -1.6891e-05);
    }
}


// ************************************************************************* //
