/*--------------------------------*- C++ -*----------------------------------*\
  =========                 |
  \\      /  F ield         | OpenFOAM: The Open Source CFD Toolbox
   \\    /   O peration     | Website:  https://openfoam.org
    \\  /    A nd           | Version:  9
     \\/     M anipulation  |
\*---------------------------------------------------------------------------*/
FoamFile
{
    format      ascii;
    class       surfaceScalarField;
    location    "0.02";
    object      phi;
}
// * * * * * * * * * * * * * * * * * * * * * * * * * * * * * * * * * * * * * //

dimensions      [0 3 -1 0 0 0 0];

internalField   nonuniform List<scalar> 
63
(
-5.96263e-07
4.04922e-06
-2.12969e-06
9.06817e-06
-4.10948e-06
1.09495e-05
-6.15804e-06
1.09496e-05
1.02418e-05
-8.0901e-07
4.85823e-06
-2.77267e-06
1.10318e-05
-5.2511e-06
1.34279e-05
-7.79298e-06
-1.12693e-06
5.98516e-06
-3.69163e-06
1.35965e-05
1.65547e-05
-1.52712e-06
7.51227e-06
-4.79733e-06
1.68667e-05
2.03586e-05
-2.00399e-06
9.51627e-06
-6.0116e-06
2.08743e-05
2.47362e-05
-2.62346e-06
1.21397e-05
-7.41981e-06
2.56707e-05
2.9533e-05
-3.58282e-06
1.57225e-05
-9.23849e-06
3.13264e-05
3.44322e-05
-5.04885e-06
2.07714e-05
-1.13769e-05
3.76545e-05
3.85993e-05
-6.98552e-06
2.77569e-05
-1.27447e-05
4.34137e-05
4.00109e-05
-8.47911e-06
3.6236e-05
-9.75827e-06
4.46928e-05
3.49663e-05
-3.83298e-06
4.0069e-05
8.54162e-06
3.23182e-05
1.92944e-05
4.0069e-05
7.23872e-05
)
;

boundaryField
{
    movingWall
    {
        type            calculated;
        value           uniform 0;
    }
    fixedWalls
    {
        type            calculated;
        value           uniform 0;
    }
    frontAndBack
    {
        type            empty;
        value           nonuniform List<scalar> 0();
    }
    procBoundary1to0
    {
        type            processor;
        value           nonuniform List<scalar> 5(-3.45295e-06 -7.53474e-06 -8.96967e-06 -8.90103e-06 -8.26562e-06);
    }
    procBoundary1to3
    {
        type            processor;
        value           nonuniform List<scalar> 8(-8.13425e-06 1.34915e-05 -1.02148e-05 1.26636e-05 -6.81848e-06 -8.6012e-06 -1.03892e-05 -1.22166e-05);
    }
    procBoundary1to4
    {
        type            processor;
        value           nonuniform List<scalar> 6(-1.41377e-05 -1.5544e-05 -1.41564e-05 -4.71361e-06 2.42135e-05 9.16816e-05);
    }
}


// ************************************************************************* //
