/*--------------------------------*- C++ -*----------------------------------*\
  =========                 |
  \\      /  F ield         | OpenFOAM: The Open Source CFD Toolbox
   \\    /   O peration     | Website:  https://openfoam.org
    \\  /    A nd           | Version:  8
     \\/     M anipulation  |
\*---------------------------------------------------------------------------*/
FoamFile
{
    version     2.0;
    format      ascii;
    class       volScalarField;
    location    "1";
    object      p;
}
// * * * * * * * * * * * * * * * * * * * * * * * * * * * * * * * * * * * * * //

dimensions      [0 2 -2 0 0 0 0];

internalField   nonuniform List<scalar> 
400
(
-0.0991402
-0.198088
-0.251213
-0.276579
-0.280207
-0.267991
-0.243053
-0.205981
-0.159417
-0.106353
-0.0490219
0.0103936
0.0691276
0.124038
0.172253
0.211723
0.241456
0.261437
0.272446
0.276107
-0.198476
-0.238935
-0.26845
-0.283592
-0.282573
-0.267718
-0.24138
-0.204247
-0.158509
-0.106519
-0.0500966
0.00873668
0.0672006
0.122021
0.170131
0.209311
0.238491
0.257597
0.266994
0.266642
-0.250152
-0.268353
-0.280152
-0.28455
-0.27722
-0.259872
-0.233805
-0.198714
-0.156143
-0.107872
-0.0550476
0.00086917
0.0572942
0.110725
0.157615
0.195316
0.222647
0.23975
0.247191
0.245439
-0.273147
-0.280643
-0.280646
-0.27645
-0.263826
-0.244699
-0.219955
-0.188462
-0.15114
-0.10915
-0.0627296
-0.0123989
0.0397547
0.0900957
0.134525
0.169833
0.194587
0.209051
0.214139
0.210887
-0.277969
-0.278999
-0.271552
-0.260961
-0.244004
-0.223457
-0.200375
-0.173058
-0.14194
-0.107863
-0.0702743
-0.0285195
0.0162333
0.060602
0.100208
0.131456
0.152677
0.16405
0.166786
0.162317
-0.27028
-0.267574
-0.255668
-0.24099
-0.221056
-0.199683
-0.178586
-0.155699
-0.130951
-0.105387
-0.0782542
-0.0477776
-0.0137172
0.0214895
0.0537617
0.0794082
0.0964863
0.104785
0.105758
0.101015
-0.255708
-0.251772
-0.238205
-0.222164
-0.201198
-0.179913
-0.161123
-0.142713
-0.123619
-0.10554
-0.0886654
-0.0707603
-0.0499104
-0.0267305
-0.00406741
0.0148548
0.027822
0.0338183
0.0342392
0.0305219
-0.23958
-0.236739
-0.224448
-0.210239
-0.190935
-0.171214
-0.155266
-0.141877
-0.127824
-0.115144
-0.106298
-0.100004
-0.0929859
-0.0832954
-0.0714395
-0.0593865
-0.0495229
-0.0441848
-0.0427152
-0.0444641
-0.224327
-0.224839
-0.216834
-0.208158
-0.19439
-0.179051
-0.167101
-0.160656
-0.152876
-0.144251
-0.140112
-0.14204
-0.146642
-0.14934
-0.147438
-0.140801
-0.131766
-0.124556
-0.120374
-0.12036
-0.208176
-0.213734
-0.212694
-0.213369
-0.210258
-0.204474
-0.198596
-0.202393
-0.205271
-0.202669
-0.201394
-0.207294
-0.218878
-0.229995
-0.234683
-0.230121
-0.218258
-0.205675
-0.196964
-0.196543
-0.184994
-0.196134
-0.204588
-0.218349
-0.23166
-0.244024
-0.247987
-0.26534
-0.285198
-0.294851
-0.298769
-0.30648
-0.320153
-0.334089
-0.340167
-0.332928
-0.313473
-0.290799
-0.274466
-0.274256
-0.145614
-0.162194
-0.184271
-0.21607
-0.250872
-0.292962
-0.314293
-0.34746
-0.388379
-0.417387
-0.432526
-0.443829
-0.457058
-0.468915
-0.47126
-0.456834
-0.425057
-0.386274
-0.355764
-0.351733
-0.0812067
-0.104236
-0.147999
-0.207267
-0.266756
-0.34724
-0.398026
-0.450442
-0.511656
-0.562303
-0.593722
-0.612306
-0.624845
-0.631321
-0.626383
-0.602752
-0.556338
-0.495273
-0.438709
-0.41834
0.0130007
-0.0209115
-0.0964854
-0.197867
-0.28589
-0.398454
-0.487113
-0.567126
-0.649243
-0.720976
-0.771293
-0.798993
-0.806946
-0.800914
-0.78384
-0.751434
-0.693051
-0.607298
-0.509775
-0.452446
0.138401
0.0835679
-0.0259335
-0.174906
-0.303353
-0.425804
-0.541425
-0.657857
-0.774065
-0.87757
-0.957029
-0.999381
-0.983197
-0.940951
-0.89613
-0.851776
-0.787889
-0.684464
-0.539283
-0.425422
0.30216
0.209138
0.0779068
-0.0842465
-0.265809
-0.397246
-0.527475
-0.689608
-0.875046
-1.05176
-1.18662
-1.23977
-1.18234
-1.05114
-0.917413
-0.825951
-0.753262
-0.651482
-0.480046
-0.309763
0.524945
0.382517
0.239111
0.116626
-0.0926355
-0.292152
-0.515295
-0.782635
-1.07133
-1.33315
-1.51564
-1.57626
-1.49588
-1.26327
-0.954361
-0.668535
-0.482918
-0.389913
-0.265112
-0.0886781
0.837016
0.689843
0.543267
0.366613
0.0751761
-0.269851
-0.665095
-1.06714
-1.41561
-1.67817
-1.84406
-1.90783
-1.85893
-1.66423
-1.27354
-0.695026
-0.131967
0.200142
0.247587
0.314965
1.45388
1.25492
0.951288
0.481738
-0.106515
-0.645291
-1.08604
-1.44531
-1.73011
-1.94115
-2.08025
-2.14728
-2.13275
-2.0084
-1.71907
-1.17865
-0.3106
0.604408
1.10231
1.1989
2.099
1.6223
0.829859
-0.00156117
-0.584808
-1.0024
-1.34132
-1.62708
-1.85993
-2.03772
-2.1603
-2.22641
-2.22753
-2.14327
-1.94061
-1.5745
-0.944088
0.126459
1.46109
2.18857
)
;

boundaryField
{
    movingWall
    {
        type            zeroGradient;
    }
    fixedWalls
    {
        type            zeroGradient;
    }
    frontAndBack
    {
        type            empty;
    }
}


// ************************************************************************* //
