/*--------------------------------*- C++ -*----------------------------------*\
  =========                 |
  \\      /  F ield         | OpenFOAM: The Open Source CFD Toolbox
   \\    /   O peration     | Website:  https://openfoam.org
    \\  /    A nd           | Version:  8
     \\/     M anipulation  |
\*---------------------------------------------------------------------------*/
FoamFile
{
    version     2.0;
    format      ascii;
    class       surfaceScalarField;
    location    "1";
    object      phi;
}
// * * * * * * * * * * * * * * * * * * * * * * * * * * * * * * * * * * * * * //

dimensions      [0 3 -1 0 0 0 0];

internalField   nonuniform List<scalar> 
760
(
6.40724e-08
-6.40443e-08
-1.33799e-07
1.97873e-07
-6.0117e-07
4.67374e-07
-1.24932e-06
6.48148e-07
-1.98551e-06
7.36191e-07
-2.72871e-06
7.43203e-07
-3.41005e-06
6.81335e-07
-3.97016e-06
5.60107e-07
-4.35737e-06
3.87215e-07
-4.52896e-06
1.71584e-07
-4.4557e-06
-7.32587e-08
-4.1289e-06
-3.26796e-07
-3.56771e-06
-5.61195e-07
-2.82426e-06
-7.43441e-07
-1.98398e-06
-8.40281e-07
-1.15854e-06
-8.25441e-07
-4.70483e-07
-6.88063e-07
-2.98446e-08
-4.40639e-07
1.02154e-07
-1.31997e-07
1.02157e-07
-1.96147e-07
1.32094e-07
-9.65715e-07
9.67449e-07
-2.25587e-06
1.75753e-06
-3.90457e-06
2.29685e-06
-5.72586e-06
2.55748e-06
-7.54104e-06
2.55839e-06
-9.18871e-06
2.329e-06
-1.05268e-05
1.89816e-06
-1.1434e-05
1.29448e-06
-1.18156e-05
5.53144e-07
-1.16127e-05
-2.76152e-07
-1.08157e-05
-1.12384e-06
-9.47644e-06
-1.90041e-06
-7.71613e-06
-2.50375e-06
-5.72248e-06
-2.83393e-06
-3.73313e-06
-2.8148e-06
-2.00196e-06
-2.41924e-06
-7.49947e-07
-1.69266e-06
-1.03254e-07
-7.78699e-07
-1.09352e-09
-5.05917e-07
6.38017e-07
-1.89159e-06
2.35312e-06
-3.96565e-06
3.83159e-06
-6.48776e-06
4.81896e-06
-9.20522e-06
5.27493e-06
-1.1876e-05
5.22915e-06
-1.42787e-05
4.73176e-06
-1.62173e-05
3.8367e-06
-1.7525e-05
2.60217e-06
-1.80729e-05
1.10112e-06
-1.7783e-05
-5.66035e-07
-1.66437e-05
-2.26321e-06
-1.47248e-05
-3.81926e-06
-1.21875e-05
-5.0411e-06
-9.28115e-06
-5.74025e-06
-6.32394e-06
-5.77201e-06
-3.66146e-06
-5.08171e-06
-1.60699e-06
-3.74712e-06
-3.71227e-07
-2.01447e-06
-3.72319e-07
-7.89111e-07
1.42713e-06
-2.76736e-06
4.33137e-06
-5.58539e-06
6.64961e-06
-8.90912e-06
8.14269e-06
-1.24233e-05
8.78911e-06
-1.58382e-05
8.64404e-06
-1.88925e-05
7.78605e-06
-2.13549e-05
6.2991e-06
-2.30282e-05
4.27544e-06
-2.37579e-05
1.83087e-06
-2.34466e-05
-8.77386e-07
-2.20711e-05
-3.63866e-06
-1.97015e-05
-6.18885e-06
-1.65147e-05
-8.2279e-06
-1.27975e-05
-9.45748e-06
-8.93046e-06
-9.63906e-06
-5.34705e-06
-8.66512e-06
-2.46837e-06
-6.6258e-06
-6.26009e-07
-3.85683e-06
-9.98327e-07
-1.0414e-06
2.46853e-06
-3.56845e-06
6.85842e-06
-7.08032e-06
1.01615e-05
-1.11462e-05
1.22085e-05
-1.53907e-05
1.30336e-05
-1.94857e-05
1.27391e-05
-2.31427e-05
1.1443e-05
-2.61077e-05
9.26416e-06
-2.81621e-05
6.32984e-06
-2.91287e-05
2.79751e-06
-2.88855e-05
-1.12062e-06
-2.73847e-05
-5.13951e-06
-2.46759e-05
-8.89757e-06
-2.09292e-05
-1.19746e-05
-1.6449e-05
-1.39377e-05
-1.16699e-05
-1.44182e-05
-7.122e-06
-1.3213e-05
-3.36144e-06
-1.03864e-05
-8.76764e-07
-6.3415e-06
-1.87509e-06
-1.26629e-06
3.73482e-06
-4.29258e-06
9.88472e-06
-8.44075e-06
1.43097e-05
-1.31883e-05
1.6956e-05
-1.81051e-05
1.79505e-05
-2.28328e-05
1.74668e-05
-2.70659e-05
1.56761e-05
-3.0538e-05
1.27363e-05
-3.30156e-05
8.80749e-06
-3.43e-05
4.08189e-06
-3.4238e-05
-1.18269e-06
-3.27421e-05
-6.63541e-06
-2.98198e-05
-1.18199e-05
-2.5608e-05
-1.61864e-05
-2.0406e-05
-1.91397e-05
-1.46913e-05
-2.01328e-05
-9.10045e-06
-1.88039e-05
-4.35693e-06
-1.51299e-05
-1.1514e-06
-9.54703e-06
-3.02649e-06
-1.4661e-06
5.20092e-06
-4.93905e-06
1.33577e-05
-9.65757e-06
1.90282e-05
-1.50159e-05
2.23144e-05
-2.05371e-05
2.34717e-05
-2.58423e-05
2.27719e-05
-3.06197e-05
2.04535e-05
-3.46012e-05
1.67178e-05
-3.75466e-05
1.17528e-05
-3.92382e-05
5.77352e-06
-3.94875e-05
-9.33341e-07
-3.81541e-05
-7.96882e-06
-3.51799e-05
-1.47941e-05
-3.06379e-05
-2.07284e-05
-2.47892e-05
-2.49884e-05
-1.8131e-05
-2.6791e-05
-1.14059e-05
-2.5529e-05
-5.53844e-06
-2.09973e-05
-1.48224e-06
-1.36032e-05
-4.50874e-06
-1.6415e-06
6.84242e-06
-5.50488e-06
1.72211e-05
-1.07163e-05
2.42396e-05
-1.65948e-05
2.81929e-05
-2.26263e-05
2.95032e-05
-2.84229e-05
2.85685e-05
-3.36804e-05
2.5711e-05
-3.81424e-05
2.11798e-05
-4.1574e-05
1.51845e-05
-4.37475e-05
7.94698e-06
-4.44405e-05
-2.403e-07
-4.34515e-05
-8.95782e-06
-4.06358e-05
-1.76098e-05
-3.59671e-05
-2.53971e-05
-2.96219e-05
-3.13336e-05
-2.2072e-05
-3.43409e-05
-1.41443e-05
-3.34567e-05
-6.98952e-06
-2.81521e-05
-1.90331e-06
-1.86894e-05
-6.41205e-06
-1.79328e-06
8.63571e-06
-5.98806e-06
2.14158e-05
-1.16008e-05
2.98523e-05
-1.78805e-05
3.44725e-05
-2.42857e-05
3.59085e-05
-3.04345e-05
3.47172e-05
-3.60473e-05
3.13239e-05
-4.08981e-05
2.60306e-05
-4.47759e-05
1.90623e-05
-4.74591e-05
1.06302e-05
-4.87036e-05
1.00421e-06
-4.82491e-05
-9.4123e-06
-4.5851e-05
-2.00079e-05
-4.1348e-05
-2.99001e-05
-3.4773e-05
-3.79086e-05
-2.64986e-05
-4.26154e-05
-1.73768e-05
-4.25785e-05
-8.78448e-06
-3.67444e-05
-2.45022e-06
-2.50237e-05
-8.86226e-06
-1.92672e-06
1.05624e-05
-6.39692e-06
2.5886e-05
-1.23059e-05
3.57613e-05
-1.88311e-05
4.09977e-05
-2.54155e-05
4.24928e-05
-3.17014e-05
4.10031e-05
-3.74564e-05
3.70789e-05
-4.25089e-05
3.10831e-05
-4.66973e-05
2.32507e-05
-4.98326e-05
1.37655e-05
-5.16737e-05
2.84532e-06
-5.19196e-05
-9.16643e-06
-5.02279e-05
-2.16996e-05
-4.62768e-05
-3.38512e-05
-3.98903e-05
-4.42951e-05
-3.12382e-05
-5.12675e-05
-2.10849e-05
-5.27318e-05
-1.0978e-05
-4.68513e-05
-3.16164e-06
-3.284e-05
-1.20239e-05
-2.0588e-06
1.26212e-05
-6.76532e-06
3.05926e-05
-1.28557e-05
4.18517e-05
-1.94268e-05
4.75689e-05
-2.59212e-05
4.89872e-05
-3.20314e-05
4.71134e-05
-3.76009e-05
4.26484e-05
-4.25423e-05
3.60245e-05
-4.67754e-05
2.74837e-05
-5.01786e-05
1.71688e-05
-5.25522e-05
5.21891e-06
-5.35918e-05
-8.12682e-06
-5.28839e-05
-2.24075e-05
-4.99436e-05
-3.67915e-05
-4.43313e-05
-4.99074e-05
-3.58903e-05
-5.97085e-05
-2.51195e-05
-6.35026e-05
-1.35876e-05
-5.83831e-05
-4.08145e-06
-4.23462e-05
-1.61054e-05
-2.22981e-06
1.4851e-05
-7.17362e-06
3.55364e-05
-1.33253e-05
4.80033e-05
-1.96873e-05
5.39309e-05
-2.57285e-05
5.50283e-05
-3.12308e-05
5.26157e-05
-3.61513e-05
4.75689e-05
-4.05218e-05
4.0395e-05
-4.43779e-05
3.13398e-05
-4.77055e-05
2.04963e-05
-5.03936e-05
7.90703e-06
-5.21905e-05
-6.32991e-06
-5.26677e-05
-2.19304e-05
-5.12137e-05
-3.82455e-05
-4.71067e-05
-5.40143e-05
-3.97464e-05
-6.70688e-05
-2.913e-05
-7.41191e-05
-1.6562e-05
-7.0951e-05
-5.26063e-06
-5.36476e-05
-2.1366e-05
-2.52203e-06
1.73731e-05
-7.7743e-06
4.07886e-05
-1.38564e-05
5.40854e-05
-1.96713e-05
5.97458e-05
-2.47715e-05
6.01285e-05
-2.90907e-05
5.69349e-05
-3.27494e-05
5.12276e-05
-3.59362e-05
4.35817e-05
-3.8835e-05
3.42386e-05
-4.15744e-05
2.32357e-05
-4.41798e-05
1.05125e-05
-4.65178e-05
-3.99192e-06
-4.82287e-05
-2.02195e-05
-4.86608e-05
-3.78134e-05
-4.68582e-05
-5.5817e-05
-4.17134e-05
-7.22136e-05
-3.24687e-05
-8.33638e-05
-1.97232e-05
-8.36965e-05
-6.75556e-06
-6.66153e-05
-2.81215e-05
-3.08962e-06
2.04627e-05
-8.81433e-06
4.65133e-05
-1.46401e-05
5.99112e-05
-1.94191e-05
6.45248e-05
-2.2909e-05
6.36185e-05
-2.52959e-05
5.93217e-05
-2.69273e-05
5.2859e-05
-2.81842e-05
4.48386e-05
-2.94192e-05
3.54737e-05
-3.09226e-05
2.47391e-05
-3.28875e-05
1.24773e-05
-3.53559e-05
-1.52351e-06
-3.81329e-05
-1.74425e-05
-4.06604e-05
-3.52859e-05
-4.18882e-05
-5.45891e-05
-4.02572e-05
-7.38446e-05
-3.40702e-05
-8.95508e-05
-2.26627e-05
-9.5104e-05
-8.61054e-06
-8.06674e-05
-3.67321e-05
-4.1997e-06
2.46624e-05
-1.06196e-05
5.29332e-05
-1.57934e-05
6.5085e-05
-1.87409e-05
6.74723e-05
-1.96684e-05
6.4546e-05
-1.91622e-05
5.88156e-05
-1.78667e-05
5.15635e-05
-1.63747e-05
4.33466e-05
-1.52018e-05
3.43008e-05
-1.47858e-05
2.43232e-05
-1.54829e-05
1.31743e-05
-1.75344e-05
5.27965e-07
-2.09855e-05
-1.39913e-05
-2.55269e-05
-3.07445e-05
-3.02478e-05
-4.98683e-05
-3.33743e-05
-7.07181e-05
-3.22938e-05
-9.06313e-05
-2.45465e-05
-0.000102851
-1.07836e-05
-9.44303e-05
-4.75157e-05
-6.24554e-06
3.09079e-05
-1.34028e-05
6.00905e-05
-1.69208e-05
6.86031e-05
-1.66346e-05
6.71861e-05
-1.36251e-05
6.15365e-05
-9.04997e-06
5.42404e-05
-3.88355e-06
4.63971e-05
1.10087e-06
3.83622e-05
5.28393e-06
3.01177e-05
8.14395e-06
2.14632e-05
9.22044e-06
1.20979e-05
8.10777e-06
1.64063e-06
4.50449e-06
-1.0388e-05
-1.64823e-06
-2.45918e-05
-9.86106e-06
-4.16554e-05
-1.85897e-05
-6.19895e-05
-2.47048e-05
-8.45162e-05
-2.37422e-05
-0.000103814
-1.29096e-05
-0.000105263
-6.04253e-05
-9.55921e-06
4.04671e-05
-1.64227e-05
6.69539e-05
-1.58173e-05
6.79977e-05
-9.88628e-06
6.1255e-05
-1.12432e-06
5.27746e-05
8.70338e-06
4.44127e-05
1.8417e-05
3.66835e-05
2.72196e-05
2.95596e-05
3.45345e-05
2.28028e-05
3.9887e-05
1.61106e-05
4.28273e-05
9.15757e-06
4.28873e-05
1.58063e-06
3.95793e-05
-7.08004e-06
3.24592e-05
-1.74717e-05
2.13708e-05
-3.0567e-05
7.04807e-06
-4.76669e-05
-7.76979e-06
-6.96983e-05
-1.72096e-05
-9.43741e-05
-1.3759e-05
-0.000108714
-7.41843e-05
-1.34269e-05
5.38941e-05
-1.50758e-05
6.86028e-05
-5.09355e-06
5.80155e-05
9.81256e-06
4.63489e-05
2.58404e-05
3.67467e-05
4.12063e-05
2.90468e-05
5.50304e-05
2.28594e-05
6.68489e-05
1.77411e-05
7.63734e-05
1.32783e-05
8.33527e-05
9.13128e-06
8.74927e-05
5.01762e-06
8.84013e-05
6.71994e-07
8.55534e-05
-4.23213e-06
7.82431e-05
-1.01614e-05
6.5642e-05
-1.79659e-05
4.71706e-05
-2.91955e-05
2.37832e-05
-4.63109e-05
7.07586e-07
-7.12985e-05
-1.02157e-05
-9.77903e-05
-8.43999e-05
-9.40511e-06
6.32992e-05
8.8238e-06
5.03739e-05
3.51784e-05
3.16608e-05
6.00288e-05
2.14985e-05
8.14717e-05
1.53039e-05
9.94362e-05
1.10822e-05
0.000114181
8.11444e-06
0.00012599
5.93205e-06
0.000135068
4.20038e-06
0.000141499
2.70011e-06
0.000145233
1.2839e-06
0.000146063
-1.5765e-07
0.000143597
-1.76677e-06
0.000137136
-3.69971e-06
0.000125507
-6.3369e-06
0.000106861
-1.05501e-05
7.90507e-05
-1.85003e-05
4.22769e-05
-3.45246e-05
6.89316e-06
-6.24066e-05
-7.75068e-05
6.32992e-05
0.000113673
0.000145334
0.000166832
0.000182136
0.000193219
0.000201333
0.000207265
0.000211465
0.000214166
0.000215449
0.000215292
0.000213525
0.000209825
0.000203488
0.000192938
0.000174438
0.000139913
7.75068e-05
)
;

boundaryField
{
    movingWall
    {
        type            calculated;
        value           uniform 0;
    }
    fixedWalls
    {
        type            calculated;
        value           uniform 0;
    }
    frontAndBack
    {
        type            empty;
        value           nonuniform List<scalar> 0();
    }
}


// ************************************************************************* //
