/*--------------------------------*- C++ -*----------------------------------*\
  =========                 |
  \\      /  F ield         | OpenFOAM: The Open Source CFD Toolbox
   \\    /   O peration     | Website:  https://openfoam.org
    \\  /    A nd           | Version:  8
     \\/     M anipulation  |
\*---------------------------------------------------------------------------*/
FoamFile
{
    version     2.0;
    format      ascii;
    class       volVectorField;
    location    "1";
    object      U;
}
// * * * * * * * * * * * * * * * * * * * * * * * * * * * * * * * * * * * * * //

dimensions      [0 1 -1 0 0 0 0];

internalField   nonuniform List<vector> 
400
(
(0.00120463 -0.00120684 0)
(0.000402843 0.000673468 0)
(-0.00644948 0.00286734 0)
(-0.0179654 0.00434012 0)
(-0.0321697 0.00506876 0)
(-0.0472903 0.00518492 0)
(-0.0618224 0.00480546 0)
(-0.0744842 0.00400693 0)
(-0.084162 0.00283706 0)
(-0.0898986 0.00134541 0)
(-0.0909516 -0.000383525 0)
(-0.0869156 -0.00220686 0)
(-0.0778735 -0.00391596 0)
(-0.0645315 -0.00525214 0)
(-0.0482822 -0.00594532 0)
(-0.0311455 -0.00577264 0)
(-0.015545 -0.00462828 0)
(-0.00390929 -0.00259415 0)
(0.00189143 -8.67712e-05 0)
(0.00157693 0.00152419 0)
(-0.000622502 -0.000510849 0)
(-0.00896125 0.00883927 0)
(-0.0300508 0.018401 0)
(-0.0603753 0.024982 0)
(-0.0959658 0.0282349 0)
(-0.133149 0.0284654 0)
(-0.168512 0.0260701 0)
(-0.199004 0.0213949 0)
(-0.221972 0.0147485 0)
(-0.23522 0.0064983 0)
(-0.237159 -0.00281632 0)
(-0.227048 -0.0124077 0)
(-0.205267 -0.0212319 0)
(-0.173538 -0.0280728 0)
(-0.134994 -0.0317232 0)
(-0.0940057 -0.0312495 0)
(-0.0556618 -0.0263013 0)
(-0.0249177 -0.0174105 0)
(-0.00569957 -0.00641462 0)
(0.000312353 0.0020824 0)
(-0.00307467 0.0064969 0)
(-0.0201017 0.0303272 0)
(-0.055569 0.0520681 0)
(-0.102974 0.0668918 0)
(-0.156634 0.0739852 0)
(-0.211665 0.0737763 0)
(-0.263441 0.0670242 0)
(-0.307754 0.0545236 0)
(-0.34094 0.0371046 0)
(-0.359995 0.0158014 0)
(-0.362782 -0.0079444 0)
(-0.348334 -0.032149 0)
(-0.317179 -0.0542965 0)
(-0.271613 -0.0715395 0)
(-0.215794 -0.0811088 0)
(-0.155542 -0.0809074 0)
(-0.0976944 -0.0702034 0)
(-0.0490382 -0.0502718 0)
(-0.0155776 -0.0250283 0)
(-0.00167164 -0.00260536 0)
(-0.00527101 0.0195471 0)
(-0.0305635 0.0642253 0)
(-0.0798632 0.10141 0)
(-0.143229 0.125933 0)
(-0.213177 0.136997 0)
(-0.28385 0.135352 0)
(-0.349786 0.122233 0)
(-0.406028 0.0989925 0)
(-0.448254 0.0671184 0)
(-0.472894 0.0284869 0)
(-0.477356 -0.0143399 0)
(-0.460352 -0.0579171 0)
(-0.422281 -0.0979366 0)
(-0.365572 -0.129541 0)
(-0.294894 -0.147977 0)
(-0.217058 -0.149559 0)
(-0.140393 -0.132824 0)
(-0.073608 -0.0995882 0)
(-0.0253361 -0.0557473 0)
(-0.00346059 -0.0125716 0)
(-0.00717174 0.0379621 0)
(-0.0400147 0.109515 0)
(-0.102229 0.165011 0)
(-0.180453 0.200171 0)
(-0.265393 0.214938 0)
(-0.350342 0.21077 0)
(-0.429241 0.189572 0)
(-0.496652 0.153345 0)
(-0.547827 0.104288 0)
(-0.578761 0.0451499 0)
(-0.586387 -0.0203504 0)
(-0.568913 -0.0872386 0)
(-0.526257 -0.149269 0)
(-0.460528 -0.199301 0)
(-0.376446 -0.230152 0)
(-0.281497 -0.235957 0)
(-0.185481 -0.213857 0)
(-0.0993968 -0.165622 0)
(-0.0352273 -0.0987522 0)
(-0.00510947 -0.0275206 0)
(-0.00883462 0.0611488 0)
(-0.0484889 0.165293 0)
(-0.122525 0.241916 0)
(-0.214394 0.288628 0)
(-0.313105 0.306857 0)
(-0.411225 0.299241 0)
(-0.502291 0.268604 0)
(-0.580606 0.217692 0)
(-0.641173 0.149395 0)
(-0.679641 0.0672534 0)
(-0.692423 -0.0239722 0)
(-0.677003 -0.117865 0)
(-0.63244 -0.206217 0)
(-0.56002 -0.27937 0)
(-0.463988 -0.327182 0)
(-0.352121 -0.340756 0)
(-0.235639 -0.314801 0)
(-0.128256 -0.250077 0)
(-0.0461982 -0.15517 0)
(-0.0068722 -0.0476192 0)
(-0.0102998 0.0885835 0)
(-0.0560307 0.230553 0)
(-0.140666 0.330943 0)
(-0.244767 0.390088 0)
(-0.355817 0.411634 0)
(-0.465823 0.399907 0)
(-0.568131 0.358929 0)
(-0.657006 0.292273 0)
(-0.727403 0.203449 0)
(-0.774747 0.0965944 0)
(-0.794923 -0.0227489 0)
(-0.784521 -0.146978 0)
(-0.741372 -0.266061 0)
(-0.66538 -0.367682 0)
(-0.559644 -0.438176 0)
(-0.431607 -0.464534 0)
(-0.293599 -0.437543 0)
(-0.162343 -0.355462 0)
(-0.0594027 -0.227091 0)
(-0.00904668 -0.0736548 0)
(-0.011587 0.119771 0)
(-0.0626491 0.304205 0)
(-0.156515 0.430664 0)
(-0.271116 0.502969 0)
(-0.392605 0.527711 0)
(-0.512633 0.511444 0)
(-0.624611 0.459695 0)
(-0.723048 0.376944 0)
(-0.803123 0.267202 0)
(-0.86025 0.134921 0)
(-0.889899 -0.0139815 0)
(-0.887722 -0.171165 0)
(-0.850039 -0.325134 0)
(-0.774808 -0.460992 0)
(-0.663133 -0.56109 0)
(-0.521135 -0.607094 0)
(-0.361454 -0.583891 0)
(-0.203731 -0.484943 0)
(-0.0760687 -0.31764 0)
(-0.0119611 -0.107091 0)
(-0.0127166 0.154222 0)
(-0.0683721 0.385086 0)
(-0.169956 0.539395 0)
(-0.292905 0.625207 0)
(-0.422212 0.652846 0)
(-0.549427 0.631696 0)
(-0.668347 0.569133 0)
(-0.774095 0.470638 0)
(-0.862444 0.340588 0)
(-0.92916 0.183405 0)
(-0.969603 0.00485548 0)
(-0.978646 -0.18663 0)
(-0.951022 -0.378746 0)
(-0.882279 -0.554456 0)
(-0.770572 -0.691994 0)
(-0.619302 -0.766574 0)
(-0.439899 -0.754778 0)
(-0.254065 -0.641895 0)
(-0.0974563 -0.430884 0)
(-0.0159974 -0.150096 0)
(-0.0137564 0.191489 0)
(-0.0733901 0.472008 0)
(-0.181114 0.655163 0)
(-0.30977 0.754091 0)
(-0.443318 0.783801 0)
(-0.573522 0.757222 0)
(-0.694991 0.683989 0)
(-0.803927 0.570715 0)
(-0.8972 0.422018 0)
(-0.971452 0.24193 0)
(-1.02246 0.0354726 0)
(-1.04477 -0.189658 0)
(-1.03178 -0.421333 0)
(-0.976463 -0.641326 0)
(-0.873151 -0.824248 0)
(-0.720803 -0.938217 0)
(-0.527246 -0.948967 0)
(-0.314128 -0.828983 0)
(-0.124845 -0.571522 0)
(-0.0216433 -0.20559 0)
(-0.0149019 0.231318 0)
(-0.0782948 0.563951 0)
(-0.190713 0.775747 0)
(-0.321908 0.886108 0)
(-0.454908 0.916018 0)
(-0.582149 0.882848 0)
(-0.69962 0.798978 0)
(-0.805195 0.672316 0)
(-0.897448 0.50764 0)
(-0.97456 0.308276 0)
(-1.03346 0.0779124 0)
(-1.06916 -0.177405 0)
(-1.07444 -0.447008 0)
(-1.03999 -0.713032 0)
(-0.955894 -0.947895 0)
(-0.814926 -1.11302 0)
(-0.618107 -1.16128 0)
(-0.383146 -1.04668 0)
(-0.159484 -0.744286 0)
(-0.0295724 -0.277333 0)
(-0.0166122 0.273985 0)
(-0.0844367 0.660431 0)
(-0.200523 0.89879 0)
(-0.330475 1.01678 0)
(-0.456582 1.04329 0)
(-0.572721 1.00124 0)
(-0.677068 0.906295 0)
(-0.769884 0.767821 0)
(-0.852127 0.590707 0)
(-0.924242 0.377339 0)
(-0.98517 0.129603 0)
(-1.03146 -0.148968 0)
(-1.0564 -0.450592 0)
(-1.04949 -0.759867 0)
(-0.996904 -1.04958 0)
(-0.884083 -1.27657 0)
(-0.701692 -1.38046 0)
(-0.457654 -1.29102 0)
(-0.202416 -0.952865 0)
(-0.0407561 -0.370079 0)
(-0.0198506 0.320945 0)
(-0.0944428 0.762074 0)
(-0.213813 1.02186 0)
(-0.337734 1.14037 0)
(-0.44841 1.15729 0)
(-0.542548 1.10247 0)
(-0.621684 0.995267 0)
(-0.689323 0.846546 0)
(-0.749469 0.661228 0)
(-0.805463 0.440629 0)
(-0.859061 0.184568 0)
(-0.909437 -0.106534 0)
(-0.951949 -0.429059 0)
(-0.9767 -0.772415 0)
(-0.967528 -1.11339 0)
(-0.902768 -1.40855 0)
(-0.759874 -1.58695 0)
(-0.529724 -1.5505 0)
(-0.253962 -1.19795 0)
(-0.0565834 -0.489769 0)
(-0.0265028 0.375969 0)
(-0.112898 0.871257 0)
(-0.235463 1.14211 0)
(-0.346272 1.24903 0)
(-0.429429 1.24681 0)
(-0.486995 1.1735 0)
(-0.525543 1.05215 0)
(-0.55276 0.894808 0)
(-0.576189 0.706167 0)
(-0.602406 0.486377 0)
(-0.636414 0.233194 0)
(-0.680843 -0.0562073 0)
(-0.734607 -0.383098 0)
(-0.790759 -0.743708 0)
(-0.833783 -1.12294 0)
(-0.837354 -1.48362 0)
(-0.765202 -1.75144 0)
(-0.584275 -1.80218 0)
(-0.312383 -1.47374 0)
(-0.0788373 -0.643453 0)
(-0.0400026 0.447028 0)
(-0.146898 0.99235 0)
(-0.270632 1.25481 0)
(-0.355514 1.33098 0)
(-0.392779 1.2963 0)
(-0.394132 1.19747 0)
(-0.373288 1.06018 0)
(-0.342867 0.896609 0)
(-0.313996 0.710521 0)
(-0.296209 0.500719 0)
(-0.297492 0.263137 0)
(-0.324023 -0.00784468 0)
(-0.379142 -0.318149 0)
(-0.461072 -0.671681 0)
(-0.558933 -1.06489 0)
(-0.646961 -1.47462 0)
(-0.678991 -1.83535 0)
(-0.59495 -2.00791 0)
(-0.370465 -1.76227 0)
(-0.108894 -0.838329 0)
(-0.0657082 0.549423 0)
(-0.204729 1.13002 0)
(-0.318326 1.34888 0)
(-0.351022 1.36646 0)
(-0.313249 1.28354 0)
(-0.232415 1.15311 0)
(-0.130993 1.00044 0)
(-0.0262736 0.835491 0)
(0.0680672 0.659826 0)
(0.140832 0.470519 0)
(0.182337 0.262048 0)
(0.183886 0.0270078 0)
(0.138087 -0.243767 0)
(0.040454 -0.560764 0)
(-0.106568 -0.933023 0)
(-0.28524 -1.35792 0)
(-0.449389 -1.79451 0)
(-0.517692 -2.11241 0)
(-0.407704 -2.02649 0)
(-0.144192 -1.08057 0)
(-0.108529 0.712055 0)
(-0.286032 1.28061 0)
(-0.348907 1.3934 0)
(-0.276062 1.31787 0)
(-0.119721 1.17496 0)
(0.072968 1.01413 0)
(0.272877 0.853806 0)
(0.461212 0.698029 0)
(0.624861 0.544452 0)
(0.753736 0.388019 0)
(0.838884 0.222286 0)
(0.87128 0.0394602 0)
(0.841341 -0.170466 0)
(0.739235 -0.421182 0)
(0.557256 -0.731197 0)
(0.297747 -1.11984 0)
(-0.00902848 -1.58535 0)
(-0.281493 -2.04279 0)
(-0.375988 -2.20011 0)
(-0.167752 -1.37345 0)
(-0.155398 0.978321 0)
(-0.340025 1.40025 0)
(-0.237045 1.30625 0)
(0.0335046 1.11459 0)
(0.35505 0.923618 0)
(0.674787 0.754187 0)
(0.969739 0.60855 0)
(1.22801 0.481805 0)
(1.4428 0.367023 0)
(1.60916 0.257435 0)
(1.72197 0.146685 0)
(1.77459 0.0282108 0)
(1.75808 -0.106066 0)
(1.66025 -0.268149 0)
(1.4652 -0.478132 0)
(1.1567 -0.768763 0)
(0.731092 -1.18048 0)
(0.228126 -1.71306 0)
(-0.173244 -2.15907 0)
(-0.118891 -1.67466 0)
(-0.0475158 1.2693 0)
(-0.0719803 1.31668 0)
(0.411475 0.968831 0)
(0.958187 0.709452 0)
(1.42945 0.529268 0)
(1.82304 0.398361 0)
(2.1491 0.301092 0)
(2.41397 0.226094 0)
(2.62245 0.164552 0)
(2.77754 0.110086 0)
(2.87974 0.0579853 0)
(2.92658 0.00427218 0)
(2.91236 -0.055294 0)
(2.8266 -0.127342 0)
(2.65146 -0.224356 0)
(2.35805 -0.373235 0)
(1.90151 -0.630296 0)
(1.22433 -1.07904 0)
(0.452735 -1.68826 0)
(0.217449 -1.7015 0)
(1.43808 0.70711 0)
(1.83548 0.626498 0)
(2.56305 0.398224 0)
(3.13707 0.25163 0)
(3.51142 0.164229 0)
(3.76858 0.10941 0)
(3.95611 0.0739879 0)
(4.09446 0.0502272 0)
(4.19458 0.0331136 0)
(4.26293 0.0195173 0)
(4.30259 0.00748945 0)
(4.31406 -0.0043077 0)
(4.2955 -0.016953 0)
(4.24213 -0.032169 0)
(4.14416 -0.0531718 0)
(3.98044 -0.0879707 0)
(3.70175 -0.158337 0)
(3.17375 -0.316119 0)
(2.29909 -0.62266 0)
(1.66795 -0.779733 0)
)
;

boundaryField
{
    movingWall
    {
        type            fixedValue;
        value           uniform (5.07322 0 0);
    }
    fixedWalls
    {
        type            noSlip;
    }
    frontAndBack
    {
        type            empty;
    }
}


// ************************************************************************* //
