/*--------------------------------*- C++ -*----------------------------------*\
  =========                 |
  \\      /  F ield         | OpenFOAM: The Open Source CFD Toolbox
   \\    /   O peration     | Website:  https://openfoam.org
    \\  /    A nd           | Version:  9
     \\/     M anipulation  |
\*---------------------------------------------------------------------------*/
FoamFile
{
    format      ascii;
    class       volVectorField;
    location    "0.045";
    object      U;
}
// * * * * * * * * * * * * * * * * * * * * * * * * * * * * * * * * * * * * * //

dimensions      [0 1 -1 0 0 0 0];

internalField   nonuniform List<vector> 
40
(
(-0.0423075 0.00376538 0)
(-0.0520424 0.00372044 0)
(-0.0612708 0.00359421 0)
(-0.0690188 0.00288932 0)
(-0.0738059 0.00145029 0)
(-0.102857 0.0189432 0)
(-0.126295 0.0180573 0)
(-0.147105 0.0162484 0)
(-0.163477 0.012287 0)
(-0.172882 0.00607203 0)
(-0.152378 0.0477864 0)
(-0.185532 0.0445506 0)
(-0.214223 0.0385456 0)
(-0.23593 0.0280937 0)
(-0.2478 0.0135041 0)
(-0.195485 0.0856333 0)
(-0.236761 0.0789453 0)
(-0.272121 0.0669075 0)
(-0.298473 0.0476891 0)
(-0.31258 0.0224643 0)
(-0.233251 0.131247 0)
(-0.281898 0.120226 0)
(-0.323554 0.100776 0)
(-0.354613 0.0710109 0)
(-0.371465 0.0331785 0)
(-0.266014 0.184237 0)
(-0.321553 0.168269 0)
(-0.369357 0.140339 0)
(-0.405474 0.0986534 0)
(-0.426165 0.046844 0)
(-0.294554 0.243161 0)
(-0.356862 0.222183 0)
(-0.410773 0.185334 0)
(-0.452246 0.13147 0)
(-0.478812 0.0651426 0)
(-0.324893 0.307151 0)
(-0.394042 0.280616 0)
(-0.454106 0.234962 0)
(-0.501225 0.169177 0)
(-0.531358 0.0884074 0)
)
;

boundaryField
{
    movingWall
    {
        type            fixedValue;
        value           nonuniform List<vector> 0();
    }
    fixedWalls
    {
        type            noSlip;
    }
    frontAndBack
    {
        type            empty;
    }
    procBoundary2to0
    {
        type            processor;
        value           nonuniform List<vector> 8((-0.0324863 0.00394424 0) (-0.0785947 0.0195697 0) (-0.117832 0.0495339 0) (-0.152339 0.0890103 0) (-0.182466 0.136788 0) (-0.208345 0.192147 0) (-0.230452 0.25387 0) (-0.253262 0.319344 0));
    }
    procBoundary2to3
    {
        type            processor;
        value           nonuniform List<vector> 5((-0.365551 0.379909 0) (-0.443005 0.34712 0) (-0.507791 0.290892 0) (-0.557323 0.21132 0) (-0.587445 0.115088 0));
    }
    procBoundary2to5
    {
        type            processor;
        value           nonuniform List<vector> 8((-0.0753155 -1.38531e-05 0) (-0.17575 -0.000446472 0) (-0.25112 -0.00192875 0) (-0.3165 -0.00421994 0) (-0.376855 -0.00674636 0) (-0.435032 -0.0079722 0) (-0.492065 -0.00578036 0) (-0.549791 0.00106746 0));
    }
}


// ************************************************************************* //
