/*--------------------------------*- C++ -*----------------------------------*\
| =========                 |                                                 |
| \\      /  F ield         | OpenFOAM: The Open Source CFD Toolbox           |
|  \\    /   O peration     | Version:  2212                                  |
|   \\  /    A nd           | Website:  www.openfoam.com                      |
|    \\/     M anipulation  |                                                 |
\*---------------------------------------------------------------------------*/
FoamFile
{
    version     2.0;
    format      ascii;
    arch        "LSB;label=32;scalar=64";
    class       volVectorField;
    location    "0.1";
    object      U;
}
// * * * * * * * * * * * * * * * * * * * * * * * * * * * * * * * * * * * * * //

dimensions      [0 1 -1 0 0 0 0];

internalField   nonuniform List<vector> 
45
(
(0.3138 0 0)
(0.332147 0 0)
(0.343933 0 0)
(0.379923 0 0)
(0.399694 0 0)
(0.412222 0 0)
(0.418288 0 0)
(0.418287 0 0)
(0.412218 0 0)
(0.399689 0 0)
(0.456691 0 0)
(0.476914 0 0)
(0.489525 0 0)
(0.495576 0 0)
(0.495575 0 0)
(0.489522 0 0)
(0.47691 0 0)
(0.544702 0 0)
(0.563888 0 0)
(0.575643 0 0)
(0.581228 0 0)
(0.581227 0 0)
(0.575641 0 0)
(0.563885 0 0)
(0.643888 0 0)
(0.660063 0 0)
(0.669796 0 0)
(0.674374 0 0)
(0.674374 0 0)
(0.669795 0 0)
(0.660061 0 0)
(0.753035 0 0)
(0.764004 0 0)
(0.770498 0 0)
(0.773526 0 0)
(0.773526 0 0)
(0.770497 0 0)
(0.764003 0 0)
(0.869328 0 0)
(0.873238 0 0)
(0.875528 0 0)
(0.87659 0 0)
(0.87659 0 0)
(0.875528 0 0)
(0.873237 0 0)
)
;

boundaryField
{
    movingWall
    {
        type            fixedValue;
        value           uniform (0.928803 0 0);
    }
    fixedWalls
    {
        type            noSlip;
    }
    frontAndBack
    {
        type            empty;
    }
    procBoundary7to3
    {
        type            processor;
        value           uniform (0.2574 0 0);
    }
    procBoundary7to4
    {
        type            processor;
        value           nonuniform List<vector> 7((0.27379 0 0) (0.284444 0 0) (0.34969 0 0) (0.34969 0 0) (0.349691 0 0) (0.343935 0 0) (0.332146 0 0));
    }
    procBoundary7to6
    {
        type            processor;
        value           nonuniform List<vector> 7((0.28816 0 0) (0.351755 0 0) (0.427206 0 0) (0.515979 0 0) (0.618975 0 0) (0.735679 0 0) (0.863018 0 0));
    }
    procBoundary7to8
    {
        type            processor;
        value           nonuniform List<vector> 6((0.379923 0 0) (0.45669 0 0) (0.544702 0 0) (0.643887 0 0) (0.753035 0 0) (0.869328 0 0));
    }
}


// ************************************************************************* //
