/*--------------------------------*- C++ -*----------------------------------*\
  =========                 |
  \\      /  F ield         | OpenFOAM: The Open Source CFD Toolbox
   \\    /   O peration     | Website:  https://openfoam.org
    \\  /    A nd           | Version:  9
     \\/     M anipulation  |
\*---------------------------------------------------------------------------*/
FoamFile
{
    format      ascii;
    class       surfaceScalarField;
    location    "0.025";
    object      phi;
}
// * * * * * * * * * * * * * * * * * * * * * * * * * * * * * * * * * * * * * //

dimensions      [0 3 -1 0 0 0 0];

internalField   nonuniform List<scalar> 
66
(
-2.92963e-06
-6.19052e-10
-2.81488e-06
-1.14747e-07
-2.61636e-06
-1.9852e-07
-2.88348e-07
-6.46566e-06
-1.72984e-08
-6.21798e-06
-3.62434e-07
-5.77399e-06
-6.42508e-07
-9.22232e-07
-8.8568e-06
-7.32629e-08
-8.49927e-06
-7.19955e-07
-7.87336e-06
-1.26842e-06
-1.79951e-06
-1.07667e-05
-1.56442e-07
-1.03186e-05
-1.16805e-06
-9.54146e-06
-2.04552e-06
-2.87933e-06
-1.24124e-05
-2.31986e-07
-1.1911e-05
-1.66946e-06
-1.10121e-05
-2.94446e-06
-4.1461e-06
-1.39618e-05
-2.32306e-07
-1.34735e-05
-2.15773e-06
-1.25191e-05
-3.8989e-06
-5.5596e-06
-1.55451e-05
-1.02815e-07
-1.51625e-05
-2.54032e-06
-1.42321e-05
-4.82928e-06
-7.05345e-06
-1.72809e-05
1.11522e-07
-1.69886e-05
-2.83254e-06
-1.61522e-05
-5.66569e-06
-8.52051e-06
-1.9287e-05
2.42127e-07
-1.89624e-05
-3.15713e-06
-1.81769e-05
-6.4512e-06
-9.92172e-06
-2.17502e-05
-2.13077e-05
-2.04601e-05
)
;

boundaryField
{
    movingWall
    {
        type            calculated;
        value           nonuniform List<scalar> 0();
    }
    fixedWalls
    {
        type            calculated;
        value           uniform 0;
    }
    frontAndBack
    {
        type            empty;
        value           nonuniform List<scalar> 0();
    }
    procBoundary5to2
    {
        type            processor;
        value           nonuniform List<scalar> 8(2.93025e-06 6.48234e-06 8.91276e-06 1.08498e-05 1.2488e-05 1.39621e-05 1.54156e-05 1.70665e-05);
    }
    procBoundary5to3
    {
        type            processor;
        value           nonuniform List<scalar> 2(1.91564e-05 2.18249e-05);
    }
    procBoundary5to6
    {
        type            processor;
        value           nonuniform List<scalar> 4(1.67347e-07 -3.59956e-06 -7.29888e-06 -1.13275e-05);
    }
    procBoundary5to7
    {
        type            processor;
        value           nonuniform List<scalar> 6(-2.32801e-06 -5.1401e-06 -6.99609e-06 -8.46163e-06 -9.74533e-06 -1.11056e-05);
    }
    procBoundary5to8
    {
        type            processor;
        value           nonuniform List<scalar> 4(-1.27382e-05 -1.46852e-05 -1.67757e-05 -1.90542e-05);
    }
}


// ************************************************************************* //
