/*--------------------------------*- C++ -*----------------------------------*\
| =========                 |                                                 |
| \\      /  F ield         | OpenFOAM: The Open Source CFD Toolbox           |
|  \\    /   O peration     | Version:  2212                                  |
|   \\  /    A nd           | Website:  www.openfoam.com                      |
|    \\/     M anipulation  |                                                 |
\*---------------------------------------------------------------------------*/
FoamFile
{
    version     2.0;
    format      ascii;
    arch        "LSB;label=32;scalar=64";
    class       volVectorField;
    location    "0.4";
    object      U;
}
// * * * * * * * * * * * * * * * * * * * * * * * * * * * * * * * * * * * * * //

dimensions      [0 1 -1 0 0 0 0];

internalField   nonuniform List<vector> 
44
(
(0.113843 0 0)
(0.119562 0 0)
(0.122441 0 0)
(0.122438 0 0)
(0.138472 0 0)
(0.145333 0 0)
(0.148784 0 0)
(0.148783 0 0)
(0.145328 0 0)
(0.138466 0 0)
(0.166436 0 0)
(0.17453 0 0)
(0.178594 0 0)
(0.178593 0 0)
(0.174528 0 0)
(0.166433 0 0)
(0.198367 0 0)
(0.207774 0 0)
(0.212485 0 0)
(0.212484 0 0)
(0.207772 0 0)
(0.198366 0 0)
(0.234963 0 0)
(0.245728 0 0)
(0.251103 0 0)
(0.251103 0 0)
(0.245728 0 0)
(0.234962 0 0)
(0.276977 0 0)
(0.289089 0 0)
(0.295111 0 0)
(0.295112 0 0)
(0.28909 0 0)
(0.276978 0 0)
(0.325209 0 0)
(0.338555 0 0)
(0.345158 0 0)
(0.345159 0 0)
(0.338558 0 0)
(0.325211 0 0)
(0.401822 0 0)
(0.401823 0 0)
(0.394786 0 0)
(0.380467 0 0)
)
;

boundaryField
{
    movingWall
    {
        type            fixedValue;
        value           nonuniform List<vector> 0();
    }
    fixedWalls
    {
        type            noSlip;
    }
    frontAndBack
    {
        type            empty;
    }
    procBoundary4to0
    {
        type            processor;
        value           uniform (0.10538 0 0);
    }
    procBoundary4to1
    {
        type            processor;
        value           nonuniform List<vector> 7((0.0919801 0 0) (0.096646 0 0) (0.0989986 0 0) (0.0989981 0 0) (0.119557 0 0) (0.119557 0 0) (0.113838 0 0));
    }
    procBoundary4to3
    {
        type            processor;
        value           nonuniform List<vector> 6((0.128294 0 0) (0.154393 0 0) (0.184317 0 0) (0.218798 0 0) (0.258668 0 0) (0.304859 0 0));
    }
    procBoundary4to5
    {
        type            processor;
        value           nonuniform List<vector> 6((0.128291 0 0) (0.154391 0 0) (0.184316 0 0) (0.218799 0 0) (0.25867 0 0) (0.304861 0 0));
    }
    procBoundary4to7
    {
        type            processor;
        value           nonuniform List<vector> 7((0.380468 0 0) (0.394784 0 0) (0.394784 0 0) (0.465546 0 0) (0.465546 0 0) (0.458316 0 0) (0.443492 0 0));
    }
    procBoundary4to8
    {
        type            processor;
        value           uniform (0.358401 0 0);
    }
}


// ************************************************************************* //
