/*--------------------------------*- C++ -*----------------------------------*\
| =========                 |                                                 |
| \\      /  F ield         | OpenFOAM: The Open Source CFD Toolbox           |
|  \\    /   O peration     | Version:  2212                                  |
|   \\  /    A nd           | Website:  www.openfoam.com                      |
|    \\/     M anipulation  |                                                 |
\*---------------------------------------------------------------------------*/
FoamFile
{
    version     2.0;
    format      ascii;
    arch        "LSB;label=32;scalar=64";
    class       volVectorField;
    location    "0.1";
    object      U;
}
// * * * * * * * * * * * * * * * * * * * * * * * * * * * * * * * * * * * * * //

dimensions      [0 1 -1 0 0 0 0];

internalField   nonuniform List<vector> 
44
(
(0.00313277 0 0)
(0.00268264 0 0)
(0.00216366 0 0)
(0.00158806 0 0)
(0.000970253 0 0)
(0.000326355 0 0)
(0.00959495 0 0)
(0.00821748 0 0)
(0.00662863 0 0)
(0.00486578 0 0)
(0.00297308 0 0)
(0.00100007 0 0)
(0.016653 0 0)
(0.0142663 0 0)
(0.0115111 0 0)
(0.00845174 0 0)
(0.00516503 0 0)
(0.00173756 0 0)
(0.0247232 0 0)
(0.0211895 0 0)
(0.0171044 0 0)
(0.0125631 0 0)
(0.00767957 0 0)
(0.00258383 0 0)
(0.0342504 0 0)
(0.0293735 0 0)
(0.0237249 0 0)
(0.0174347 0 0)
(0.0106615 0 0)
(0.00358783 0 0)
(0.0457194 0 0)
(0.0392427 0 0)
(0.0317218 0 0)
(0.0233276 0 0)
(0.0142724 0 0)
(0.00480427 0 0)
(0.066524 0 0)
(0.0596679 0 0)
(0.0512707 0 0)
(0.0414887 0 0)
(0.0305382 0 0)
(0.0186968 0 0)
(0.00629596 0 0)
(0.00813664 0 0)
)
;

boundaryField
{
    movingWall
    {
        type            fixedValue;
        value           nonuniform List<vector> 0();
    }
    fixedWalls
    {
        type            noSlip;
    }
    frontAndBack
    {
        type            empty;
    }
    procBoundary2to1
    {
        type            processor;
        value           nonuniform List<vector> 8((0.00350422 0 0) (0.0107313 0 0) (0.0186203 0 0) (0.0276323 0 0) (0.0382577 0 0) (0.0510262 0 0) (0.0510262 0 0) (0.0717438 0 0));
    }
    procBoundary2to5
    {
        type            processor;
        value           nonuniform List<vector> 8((0.0853941 0 0) (0.0766941 0 0) (0.0659952 0 0) (0.0534791 0 0) (0.0394125 0 0) (0.024152 0 0) (0.024152 0 0) (0.0104168 0 0));
    }
}


// ************************************************************************* //
