/*--------------------------------*- C++ -*----------------------------------*\
| =========                 |                                                 |
| \\      /  F ield         | OpenFOAM: The Open Source CFD Toolbox           |
|  \\    /   O peration     | Version:  2212                                  |
|   \\  /    A nd           | Website:  www.openfoam.com                      |
|    \\/     M anipulation  |                                                 |
\*---------------------------------------------------------------------------*/
FoamFile
{
    version     2.0;
    format      ascii;
    arch        "LSB;label=32;scalar=64";
    class       volVectorField;
    location    "0.3";
    object      U;
}
// * * * * * * * * * * * * * * * * * * * * * * * * * * * * * * * * * * * * * //

dimensions      [0 1 -1 0 0 0 0];

internalField   nonuniform List<vector> 
45
(
(0.35757 0 0)
(0.379569 0 0)
(0.393839 0 0)
(0.419613 0 0)
(0.442696 0 0)
(0.457476 0 0)
(0.464682 0 0)
(0.464682 0 0)
(0.457473 0 0)
(0.442691 0 0)
(0.491083 0 0)
(0.514175 0 0)
(0.528739 0 0)
(0.535778 0 0)
(0.535778 0 0)
(0.528736 0 0)
(0.514171 0 0)
(0.572704 0 0)
(0.594226 0 0)
(0.607572 0 0)
(0.613961 0 0)
(0.61396 0 0)
(0.60757 0 0)
(0.594224 0 0)
(0.664587 0 0)
(0.682489 0 0)
(0.693397 0 0)
(0.69857 0 0)
(0.698569 0 0)
(0.693396 0 0)
(0.682487 0 0)
(0.765741 0 0)
(0.77777 0 0)
(0.784986 0 0)
(0.788379 0 0)
(0.788379 0 0)
(0.784985 0 0)
(0.777769 0 0)
(0.873612 0 0)
(0.877879 0 0)
(0.880413 0 0)
(0.881598 0 0)
(0.881598 0 0)
(0.880412 0 0)
(0.877879 0 0)
)
;

boundaryField
{
    movingWall
    {
        type            fixedValue;
        value           uniform (0.928803 0 0);
    }
    fixedWalls
    {
        type            noSlip;
    }
    frontAndBack
    {
        type            empty;
    }
    procBoundary7to3
    {
        type            processor;
        value           uniform (0.30396 0 0);
    }
    procBoundary7to4
    {
        type            processor;
        value           nonuniform List<vector> 7((0.324235 0 0) (0.337531 0 0) (0.400853 0 0) (0.400853 0 0) (0.400855 0 0) (0.393841 0 0) (0.379568 0 0));
    }
    procBoundary7to6
    {
        type            processor;
        value           nonuniform List<vector> 7((0.3272 0 0) (0.387156 0 0) (0.457882 0 0) (0.540956 0 0) (0.637437 0 0) (0.747012 0 0) (0.866839 0 0));
    }
    procBoundary7to8
    {
        type            processor;
        value           nonuniform List<vector> 6((0.419613 0 0) (0.491082 0 0) (0.572704 0 0) (0.664586 0 0) (0.765741 0 0) (0.873612 0 0));
    }
}


// ************************************************************************* //
