/*--------------------------------*- C++ -*----------------------------------*\
  =========                 |
  \\      /  F ield         | OpenFOAM: The Open Source CFD Toolbox
   \\    /   O peration     | Website:  https://openfoam.org
    \\  /    A nd           | Version:  9
     \\/     M anipulation  |
\*---------------------------------------------------------------------------*/
FoamFile
{
    format      ascii;
    class       volVectorField;
    location    "0.075";
    object      U;
}
// * * * * * * * * * * * * * * * * * * * * * * * * * * * * * * * * * * * * * //

dimensions      [0 1 -1 0 0 0 0];

internalField   nonuniform List<vector> 
40
(
(-0.0449991 0.00504343 0)
(-0.0579939 0.00485635 0)
(-0.0697457 0.00429415 0)
(-0.0791877 0.00322975 0)
(-0.085174 0.00168706 0)
(-0.120384 0.0252171 0)
(-0.151249 0.0237111 0)
(-0.178247 0.0202956 0)
(-0.199208 0.0147864 0)
(-0.211957 0.00748594 0)
(-0.188224 0.0638044 0)
(-0.232384 0.0589667 0)
(-0.270513 0.0494323 0)
(-0.299643 0.0352399 0)
(-0.317046 0.017219 0)
(-0.25012 0.115497 0)
(-0.30575 0.105681 0)
(-0.353497 0.0876748 0)
(-0.389845 0.0618757 0)
(-0.411586 0.0298892 0)
(-0.30634 0.178536 0)
(-0.372521 0.16229 0)
(-0.429314 0.133918 0)
(-0.472765 0.0942574 0)
(-0.499275 0.0457298 0)
(-0.357341 0.252326 0)
(-0.433405 0.228404 0)
(-0.498941 0.188131 0)
(-0.549719 0.132839 0)
(-0.581878 0.0657852 0)
(-0.403428 0.335887 0)
(-0.488648 0.303491 0)
(-0.562495 0.250231 0)
(-0.620755 0.178248 0)
(-0.659703 0.0913142 0)
(-0.445283 0.427896 0)
(-0.538616 0.386455 0)
(-0.619987 0.319823 0)
(-0.685503 0.230698 0)
(-0.731057 0.123486 0)
)
;

boundaryField
{
    movingWall
    {
        type            fixedValue;
        value           nonuniform List<vector> 0();
    }
    fixedWalls
    {
        type            noSlip;
    }
    frontAndBack
    {
        type            empty;
    }
    procBoundary2to0
    {
        type            processor;
        value           nonuniform List<vector> 8((-0.0318354 0.00494328 0) (-0.0882403 0.0249723 0) (-0.141576 0.0640514 0) (-0.190821 0.117087 0) (-0.235477 0.182426 0) (-0.2758 0.259302 0) (-0.312165 0.346624 0) (-0.345327 0.442668 0));
    }
    procBoundary2to3
    {
        type            processor;
        value           nonuniform List<vector> 5((-0.483763 0.527963 0) (-0.583535 0.476932 0) (-0.670597 0.396556 0) (-0.741389 0.290139 0) (-0.792489 0.162366 0));
    }
    procBoundary2to5
    {
        type            processor;
        value           nonuniform List<vector> 8((-0.0870807 -1.843e-05 0) (-0.215546 -0.000661272 0) (-0.321681 -0.00275751 0) (-0.417636 -0.00546198 0) (-0.507745 -0.00781092 0) (-0.594325 -0.00833338 0) (-0.677574 -0.00515606 0) (-0.755534 0.00347527 0));
    }
}


// ************************************************************************* //
