/*--------------------------------*- C++ -*----------------------------------*\
| =========                 |                                                 |
| \\      /  F ield         | OpenFOAM: The Open Source CFD Toolbox           |
|  \\    /   O peration     | Version:  2212                                  |
|   \\  /    A nd           | Website:  www.openfoam.com                      |
|    \\/     M anipulation  |                                                 |
\*---------------------------------------------------------------------------*/
FoamFile
{
    version     2.0;
    format      ascii;
    arch        "LSB;label=32;scalar=64";
    class       volVectorField;
    location    "0.2";
    object      U;
}
// * * * * * * * * * * * * * * * * * * * * * * * * * * * * * * * * * * * * * //

dimensions      [0 1 -1 0 0 0 0];

internalField   nonuniform List<vector> 
45
(
(0.352114 0 0)
(0.373658 0 0)
(0.387618 0 0)
(0.41474 0 0)
(0.437416 0 0)
(0.451919 0 0)
(0.458986 0 0)
(0.458985 0 0)
(0.451916 0 0)
(0.43741 0 0)
(0.486916 0 0)
(0.50966 0 0)
(0.523987 0 0)
(0.530906 0 0)
(0.530906 0 0)
(0.523984 0 0)
(0.509656 0 0)
(0.569348 0 0)
(0.59059 0 0)
(0.603744 0 0)
(0.610037 0 0)
(0.610036 0 0)
(0.603743 0 0)
(0.590587 0 0)
(0.662127 0 0)
(0.679823 0 0)
(0.690592 0 0)
(0.695693 0 0)
(0.695693 0 0)
(0.690591 0 0)
(0.679821 0 0)
(0.76424 0 0)
(0.776143 0 0)
(0.783273 0 0)
(0.786623 0 0)
(0.786623 0 0)
(0.783273 0 0)
(0.776142 0 0)
(0.873107 0 0)
(0.877332 0 0)
(0.879837 0 0)
(0.881008 0 0)
(0.881008 0 0)
(0.879837 0 0)
(0.877332 0 0)
)
;

boundaryField
{
    movingWall
    {
        type            fixedValue;
        value           uniform (0.928803 0 0);
    }
    fixedWalls
    {
        type            noSlip;
    }
    frontAndBack
    {
        type            empty;
    }
    procBoundary7to3
    {
        type            processor;
        value           uniform (0.298059 0 0);
    }
    procBoundary7to4
    {
        type            processor;
        value           nonuniform List<vector> 7((0.317841 0 0) (0.330802 0 0) (0.394475 0 0) (0.394475 0 0) (0.394477 0 0) (0.38762 0 0) (0.373656 0 0));
    }
    procBoundary7to6
    {
        type            processor;
        value           nonuniform List<vector> 7((0.322334 0 0) (0.38281 0 0) (0.454165 0 0) (0.537963 0 0) (0.635243 0 0) (0.745673 0 0) (0.866389 0 0));
    }
    procBoundary7to8
    {
        type            processor;
        value           nonuniform List<vector> 6((0.41474 0 0) (0.486915 0 0) (0.569348 0 0) (0.662126 0 0) (0.76424 0 0) (0.873107 0 0));
    }
}


// ************************************************************************* //
