/*--------------------------------*- C++ -*----------------------------------*\
  =========                 |
  \\      /  F ield         | OpenFOAM: The Open Source CFD Toolbox
   \\    /   O peration     | Website:  https://openfoam.org
    \\  /    A nd           | Version:  9
     \\/     M anipulation  |
\*---------------------------------------------------------------------------*/
FoamFile
{
    format      ascii;
    class       surfaceScalarField;
    location    "0.085";
    object      phi;
}
// * * * * * * * * * * * * * * * * * * * * * * * * * * * * * * * * * * * * * //

dimensions      [0 3 -1 0 0 0 0];

internalField   nonuniform List<scalar> 
66
(
-2.23122e-05
-2.06347e-05
-2.28201e-05
-2.62498e-05
-2.56847e-05
-2.01249e-05
-2.89449e-05
-1.35057e-05
-2.92936e-05
-7.19653e-06
-2.6212e-05
-2.21376e-06
-1.95051e-05
-8.09483e-06
-3.03362e-05
-3.08681e-05
-2.37374e-05
-3.55438e-05
-1.62676e-05
-3.67634e-05
-8.84867e-06
-3.3631e-05
-2.773e-06
-2.55808e-05
-1.08678e-05
-3.42711e-05
-3.58832e-05
-2.74716e-05
-4.23433e-05
-1.93298e-05
-4.49051e-05
-1.08088e-05
-4.2152e-05
-3.48825e-06
-3.29014e-05
-1.43561e-05
-3.75597e-05
-4.0356e-05
-3.0984e-05
-4.8919e-05
-2.25114e-05
-5.33777e-05
-1.303e-05
-5.16334e-05
-4.37123e-06
-4.15601e-05
-1.87273e-05
-3.94283e-05
-4.37919e-05
-3.36625e-05
-5.46848e-05
-2.54466e-05
-6.15937e-05
-1.53753e-05
-6.17047e-05
-5.41307e-06
-5.15223e-05
-2.41404e-05
-3.87933e-05
-4.5657e-05
-3.4632e-05
-5.88462e-05
-2.75298e-05
-1.75857e-05
-6.58566e-06
-3.43254e-05
)
;

boundaryField
{
    movingWall
    {
        type            calculated;
        value           nonuniform List<scalar> 0();
    }
    fixedWalls
    {
        type            calculated;
        value           uniform 0;
    }
    frontAndBack
    {
        type            empty;
        value           nonuniform List<scalar> 0();
    }
    procBoundary8to5
    {
        type            processor;
        value           nonuniform List<scalar> 4(2.70207e-05 3.12998e-05 3.55196e-05 3.92863e-05);
    }
    procBoundary8to6
    {
        type            processor;
        value           nonuniform List<scalar> 4(4.20324e-05 4.28642e-05 4.06584e-05 3.40901e-05);
    }
    procBoundary8to7
    {
        type            processor;
        value           nonuniform List<scalar> 7(1.59262e-05 1.73431e-05 -1.68353e-05 2.26744e-05 1.99029e-05 1.45224e-05 5.88107e-06);
    }
    procBoundary8to9
    {
        type            processor;
        value           nonuniform List<scalar> 7(-6.86958e-05 -7.16489e-05 -6.25223e-05 -3.0726e-05 -4.54216e-05 -3.26514e-05 -6.05203e-05);
    }
}


// ************************************************************************* //
