/*--------------------------------*- C++ -*----------------------------------*\
  =========                 |
  \\      /  F ield         | OpenFOAM: The Open Source CFD Toolbox
   \\    /   O peration     | Website:  https://openfoam.org
    \\  /    A nd           | Version:  9
     \\/     M anipulation  |
\*---------------------------------------------------------------------------*/
FoamFile
{
    format      ascii;
    class       volVectorField;
    location    "0.065";
    object      U;
}
// * * * * * * * * * * * * * * * * * * * * * * * * * * * * * * * * * * * * * //

dimensions      [0 1 -1 0 0 0 0];

internalField   nonuniform List<vector> 
40
(
(-0.45218 0.487754 0)
(-0.544903 0.439227 0)
(-0.625325 0.363887 0)
(-0.690284 0.265068 0)
(-0.736567 0.147217 0)
(-0.49061 0.586981 0)
(-0.586769 0.528132 0)
(-0.669762 0.438879 0)
(-0.736865 0.32369 0)
(-0.786399 0.186976 0)
(-0.302064 0.708813 0)
(-0.415851 0.721569 0)
(-0.522501 0.689036 0)
(-0.617558 0.61794 0)
(-0.698349 0.514271 0)
(-0.763915 0.383121 0)
(-0.813565 0.229533 0)
(-0.327814 0.825018 0)
(-0.440869 0.832094 0)
(-0.541892 0.788167 0)
(-0.628553 0.703385 0)
(-0.700178 0.585085 0)
(-0.758286 0.439802 0)
(-0.803765 0.272165 0)
(-0.351133 0.939866 0)
(-0.45528 0.935236 0)
(-0.541282 0.876201 0)
(-0.609326 0.775735 0)
(-0.662542 0.643833 0)
(-0.704852 0.487025 0)
(-0.739198 0.30983 0)
(-0.369427 1.04523 0)
(-0.452348 1.01981 0)
(-0.509845 0.940593 0)
(-0.546834 0.823396 0)
(-0.57009 0.679403 0)
(-0.585662 0.51588 0)
(-0.599194 0.334775 0)
(-0.376194 0.515123 0)
(-0.360001 0.337918 0)
)
;

boundaryField
{
    movingWall
    {
        type            fixedValue;
        value           nonuniform List<vector> 0();
    }
    fixedWalls
    {
        type            noSlip;
    }
    frontAndBack
    {
        type            empty;
    }
    procBoundary3to1
    {
        type            processor;
        value           nonuniform List<vector> 8((-0.3524 0.507089 0) (-0.275689 0.597252 0) (-0.385098 0.611739 0) (-0.385098 0.611739 0) (-0.187344 0.640452 0) (-0.208536 0.75363 0) (-0.232566 0.872798 0) (-0.25975 0.992985 0));
    }
    procBoundary3to2
    {
        type            processor;
        value           nonuniform List<vector> 5((-0.412236 0.395103 0) (-0.498454 0.355688 0) (-0.573368 0.293325 0) (-0.633372 0.210735 0) (-0.67474 0.112033 0));
    }
    procBoundary3to4
    {
        type            processor;
        value           nonuniform List<vector> 8((-0.375749 1.12841 0) (-0.419483 1.0723 0) (-0.43004 0.967828 0) (-0.419783 0.833966 0) (-0.39853 0.680933 0) (-0.39853 0.680933 0) (-0.0422589 0.475798 0) (0.0119773 0.311937 0));
    }
    procBoundary3to5
    {
        type            processor;
        value           nonuniform List<vector> 2((-0.764183 0.015457 0) (-0.818044 0.0341168 0));
    }
    procBoundary3to6
    {
        type            processor;
        value           nonuniform List<vector> 5((-0.848233 0.0575145 0) (-0.838781 0.0849008 0) (-0.768445 0.113021 0) (-0.615398 0.135965 0) (-0.354705 0.147133 0));
    }
}


// ************************************************************************* //
