/*--------------------------------*- C++ -*----------------------------------*\
  =========                 |
  \\      /  F ield         | OpenFOAM: The Open Source CFD Toolbox
   \\    /   O peration     | Website:  https://openfoam.org
    \\  /    A nd           | Version:  8
     \\/     M anipulation  |
\*---------------------------------------------------------------------------*/
FoamFile
{
    version     2.0;
    format      ascii;
    class       volScalarField;
    location    "1";
    object      p;
}
// * * * * * * * * * * * * * * * * * * * * * * * * * * * * * * * * * * * * * //

dimensions      [0 2 -2 0 0 0 0];

internalField   nonuniform List<scalar> 
400
(
-0.0991832
-0.198174
-0.251323
-0.276703
-0.280338
-0.268123
-0.243183
-0.206105
-0.159533
-0.10646
-0.0491182
0.0103085
0.0690534
0.123974
0.172197
0.211675
0.241412
0.261396
0.272407
0.276069
-0.198562
-0.239038
-0.268568
-0.283719
-0.282705
-0.267851
-0.241509
-0.204372
-0.158625
-0.106626
-0.0501932
0.00865116
0.067126
0.121957
0.170075
0.209262
0.238446
0.257555
0.266953
0.266601
-0.250262
-0.268471
-0.280277
-0.28468
-0.277352
-0.260003
-0.233934
-0.198837
-0.156259
-0.107979
-0.0551451
0.000782201
0.0572178
0.110658
0.157557
0.195264
0.222599
0.239703
0.247144
0.245392
-0.27327
-0.28077
-0.280775
-0.276581
-0.263956
-0.244828
-0.22008
-0.188583
-0.151254
-0.109257
-0.0628287
-0.0124887
0.0396746
0.0900247
0.134462
0.169775
0.19453
0.208996
0.214082
0.210828
-0.278098
-0.27913
-0.271682
-0.26109
-0.244131
-0.223581
-0.200496
-0.173176
-0.142053
-0.107971
-0.0703756
-0.0286134
0.0161474
0.0605237
0.100136
0.131387
0.152609
0.16398
0.166713
0.162241
-0.270412
-0.267706
-0.255797
-0.241116
-0.221179
-0.199802
-0.178702
-0.155813
-0.131062
-0.105495
-0.0783589
-0.0478776
-0.0138119
0.0213998
0.0536756
0.0793233
0.0964001
0.104696
0.105665
0.100919
-0.255839
-0.251903
-0.238333
-0.222288
-0.201318
-0.180029
-0.161237
-0.142826
-0.123731
-0.105651
-0.0887757
-0.0708694
-0.0500176
-0.026836
-0.00417231
0.0147487
0.0277128
0.0337045
0.0341207
0.0304
-0.239709
-0.236867
-0.224575
-0.210363
-0.191055
-0.171331
-0.155381
-0.141993
-0.12794
-0.115262
-0.106418
-0.100126
-0.0931102
-0.083422
-0.0715686
-0.059519
-0.0496598
-0.0443267
-0.0428618
-0.0446138
-0.224452
-0.224965
-0.216959
-0.208283
-0.194512
-0.179172
-0.167223
-0.16078
-0.153004
-0.144382
-0.140248
-0.142182
-0.14679
-0.149494
-0.147597
-0.140966
-0.131935
-0.124729
-0.120551
-0.120539
-0.208296
-0.213856
-0.212818
-0.213496
-0.210387
-0.204605
-0.198731
-0.202534
-0.205419
-0.202823
-0.201555
-0.207464
-0.219058
-0.230185
-0.23488
-0.230324
-0.218463
-0.205881
-0.197172
-0.196754
-0.185103
-0.196248
-0.204708
-0.218476
-0.231796
-0.244168
-0.24814
-0.265505
-0.285376
-0.29504
-0.298969
-0.306692
-0.320378
-0.334326
-0.340414
-0.333179
-0.313723
-0.291045
-0.27471
-0.274503
-0.145707
-0.162293
-0.184382
-0.216196
-0.251014
-0.293123
-0.314469
-0.347655
-0.388595
-0.417622
-0.432777
-0.444097
-0.457343
-0.469215
-0.47157
-0.457146
-0.425362
-0.386568
-0.356048
-0.352018
-0.0812729
-0.104312
-0.148093
-0.207385
-0.2669
-0.347417
-0.398229
-0.450672
-0.511916
-0.562591
-0.594036
-0.612642
-0.625203
-0.631696
-0.626768
-0.603137
-0.556711
-0.495624
-0.439037
-0.41866
0.0129727
-0.0209526
-0.096555
-0.197975
-0.286035
-0.398643
-0.487341
-0.567392
-0.649548
-0.72132
-0.771673
-0.799405
-0.807386
-0.801369
-0.784302
-0.751893
-0.693494
-0.607709
-0.510144
-0.452789
0.138424
0.0835719
-0.0259689
-0.174995
-0.303494
-0.425996
-0.541665
-0.658146
-0.774406
-0.877962
-0.957471
-0.999875
-0.983719
-0.941475
-0.896648
-0.852285
-0.78838
-0.684918
-0.539676
-0.425763
0.302251
0.209198
0.0779187
-0.0842965
-0.265927
-0.39742
-0.527704
-0.689901
-0.875413
-1.0522
-1.18714
-1.24036
-1.18296
-1.05172
-0.917948
-0.826451
-0.753739
-0.651929
-0.480427
-0.310067
0.525125
0.38265
0.239189
0.116649
-0.0926903
-0.29228
-0.515505
-0.782946
-1.07175
-1.3337
-1.51629
-1.57699
-1.49662
-1.26395
-0.954924
-0.668973
-0.483276
-0.390245
-0.265407
-0.0889004
0.837312
0.690087
0.543455
0.366735
0.0751928
-0.269956
-0.665343
-1.06755
-1.41617
-1.67886
-1.84486
-1.9087
-1.85981
-1.66507
-1.27425
-0.695492
-0.132186
0.200069
0.247521
0.314917
1.45441
1.25537
0.95162
0.481914
-0.10654
-0.645517
-1.08644
-1.44587
-1.73081
-1.94196
-2.08116
-2.14824
-2.13374
-2.00937
-1.71994
-1.17931
-0.310913
0.604495
1.10262
1.19923
2.09976
1.62288
0.830168
-0.00154538
-0.585009
-1.00277
-1.34183
-1.62772
-1.86069
-2.03858
-2.16125
-2.22741
-2.22856
-2.14429
-1.94156
-1.57531
-0.944648
0.126334
1.46153
2.18933
)
;

boundaryField
{
    movingWall
    {
        type            zeroGradient;
    }
    fixedWalls
    {
        type            zeroGradient;
    }
    frontAndBack
    {
        type            empty;
    }
}


// ************************************************************************* //
