/*--------------------------------*- C++ -*----------------------------------*\
  =========                 |
  \\      /  F ield         | OpenFOAM: The Open Source CFD Toolbox
   \\    /   O peration     | Website:  https://openfoam.org
    \\  /    A nd           | Version:  8
     \\/     M anipulation  |
\*---------------------------------------------------------------------------*/
FoamFile
{
    version     2.0;
    format      ascii;
    class       surfaceScalarField;
    location    "1";
    object      phi;
}
// * * * * * * * * * * * * * * * * * * * * * * * * * * * * * * * * * * * * * //

dimensions      [0 3 -1 0 0 0 0];

internalField   nonuniform List<scalar> 
760
(
6.40875e-08
-6.40594e-08
-1.33838e-07
1.97927e-07
-6.0133e-07
4.67495e-07
-1.24964e-06
6.48312e-07
-1.98602e-06
7.36375e-07
-2.72941e-06
7.43391e-07
-3.41092e-06
6.81512e-07
-3.97118e-06
5.6026e-07
-4.35851e-06
3.87327e-07
-4.53015e-06
1.71642e-07
-4.45688e-06
-7.3269e-08
-4.13e-06
-3.26881e-07
-3.56865e-06
-5.6135e-07
-2.825e-06
-7.43652e-07
-1.98448e-06
-8.40519e-07
-1.15881e-06
-8.25669e-07
-4.70568e-07
-6.88244e-07
-2.98265e-08
-4.40742e-07
1.0219e-07
-1.32014e-07
1.02193e-07
-1.96203e-07
1.32135e-07
-9.65978e-07
9.6771e-07
-2.25647e-06
1.75799e-06
-3.90559e-06
2.29744e-06
-5.72734e-06
2.55812e-06
-7.54299e-06
2.55904e-06
-9.19109e-06
2.32961e-06
-1.05295e-05
1.89867e-06
-1.1437e-05
1.29485e-06
-1.18187e-05
5.53324e-07
-1.16158e-05
-2.76201e-07
-1.08185e-05
-1.12413e-06
-9.47894e-06
-1.90094e-06
-7.71814e-06
-2.50446e-06
-5.72394e-06
-2.83472e-06
-3.73404e-06
-2.81557e-06
-2.00241e-06
-2.41988e-06
-7.50089e-07
-1.69307e-06
-1.03259e-07
-7.78853e-07
-1.0636e-09
-5.06059e-07
6.382e-07
-1.89211e-06
2.35376e-06
-3.96671e-06
3.83259e-06
-6.48947e-06
4.8202e-06
-9.20763e-06
5.27628e-06
-1.18791e-05
5.23049e-06
-1.42825e-05
4.733e-06
-1.62215e-05
3.83774e-06
-1.75296e-05
2.60291e-06
-1.80777e-05
1.10147e-06
-1.77878e-05
-5.66138e-07
-1.66481e-05
-2.2638e-06
-1.47287e-05
-3.82031e-06
-1.21907e-05
-5.04251e-06
-9.28356e-06
-5.74186e-06
-6.32553e-06
-5.77361e-06
-3.66234e-06
-5.08307e-06
-1.60735e-06
-3.74806e-06
-3.71295e-07
-2.01491e-06
-3.72357e-07
-7.89332e-07
1.42754e-06
-2.76812e-06
4.33254e-06
-5.58688e-06
6.65135e-06
-8.91147e-06
8.14479e-06
-1.24265e-05
8.79136e-06
-1.58423e-05
8.64627e-06
-1.88974e-05
7.7881e-06
-2.13605e-05
6.30082e-06
-2.30343e-05
4.27667e-06
-2.37643e-05
1.83147e-06
-2.34529e-05
-8.77529e-07
-2.20771e-05
-3.63959e-06
-1.97069e-05
-6.19053e-06
-1.65192e-05
-8.23019e-06
-1.28009e-05
-9.46013e-06
-8.93278e-06
-9.64174e-06
-5.34839e-06
-8.66746e-06
-2.46895e-06
-6.62749e-06
-6.2614e-07
-3.85772e-06
-9.98496e-07
-1.04169e-06
2.46923e-06
-3.56941e-06
6.86026e-06
-7.08219e-06
1.01641e-05
-1.11491e-05
1.22117e-05
-1.53947e-05
1.3037e-05
-1.94908e-05
1.27424e-05
-2.31487e-05
1.1446e-05
-2.61146e-05
9.2667e-06
-2.81696e-05
6.33168e-06
-2.91366e-05
2.79844e-06
-2.88934e-05
-1.12075e-06
-2.73922e-05
-5.14079e-06
-2.46827e-05
-8.89995e-06
-2.0935e-05
-1.19779e-05
-1.64535e-05
-1.39416e-05
-1.1673e-05
-1.44222e-05
-7.12386e-06
-1.32166e-05
-3.36228e-06
-1.03891e-05
-8.76962e-07
-6.34303e-06
-1.87546e-06
-1.26664e-06
3.73586e-06
-4.29372e-06
9.88735e-06
-8.44295e-06
1.43134e-05
-1.31917e-05
1.69604e-05
-1.81097e-05
1.7955e-05
-2.28387e-05
1.74713e-05
-2.70729e-05
1.56802e-05
-3.0546e-05
1.27398e-05
-3.30244e-05
8.8101e-06
-3.43093e-05
4.08331e-06
-3.42473e-05
-1.18268e-06
-3.27512e-05
-6.63695e-06
-2.98282e-05
-1.1823e-05
-2.56153e-05
-1.61908e-05
-2.04118e-05
-1.91451e-05
-1.46955e-05
-2.01385e-05
-9.10295e-06
-1.88091e-05
-4.35808e-06
-1.51339e-05
-1.15168e-06
-9.54944e-06
-3.02714e-06
-1.46649e-06
5.20235e-06
-4.94032e-06
1.33612e-05
-9.66002e-06
1.90331e-05
-1.50197e-05
2.232e-05
-2.05423e-05
2.34777e-05
-2.58488e-05
2.27778e-05
-3.06275e-05
2.0459e-05
-3.46102e-05
1.67225e-05
-3.75565e-05
1.17564e-05
-3.92488e-05
5.77561e-06
-3.94984e-05
-9.33035e-07
-3.81649e-05
-7.97051e-06
-3.519e-05
-1.47978e-05
-3.06468e-05
-2.0734e-05
-2.47965e-05
-2.49955e-05
-1.81363e-05
-2.67987e-05
-1.14092e-05
-2.55363e-05
-5.53999e-06
-2.10031e-05
-1.48263e-06
-1.36068e-05
-4.50977e-06
-1.64192e-06
6.84427e-06
-5.50624e-06
1.72255e-05
-1.07189e-05
2.42457e-05
-1.65988e-05
2.82e-05
-2.26318e-05
2.95106e-05
-2.84298e-05
2.85758e-05
-3.36888e-05
2.57179e-05
-3.81521e-05
2.11858e-05
-4.15849e-05
1.51892e-05
-4.37592e-05
7.94995e-06
-4.44528e-05
-2.39459e-07
-4.34639e-05
-8.95944e-06
-4.06477e-05
-1.7614e-05
-3.59778e-05
-2.54039e-05
-2.96309e-05
-3.13424e-05
-2.20788e-05
-3.43508e-05
-1.41486e-05
-3.34664e-05
-6.9916e-06
-2.81601e-05
-1.90385e-06
-1.86945e-05
-6.41362e-06
-1.79371e-06
8.63798e-06
-5.98944e-06
2.14212e-05
-1.16035e-05
2.98597e-05
-1.78845e-05
3.4481e-05
-2.42913e-05
3.59174e-05
-3.04416e-05
3.47261e-05
-3.60559e-05
3.13323e-05
-4.09082e-05
2.60381e-05
-4.47873e-05
1.90683e-05
-4.74716e-05
1.06343e-05
-4.8717e-05
1.00586e-06
-4.82628e-05
-9.41355e-06
-4.58645e-05
-2.00124e-05
-4.13606e-05
-2.99078e-05
-3.47839e-05
-3.7919e-05
-2.6507e-05
-4.26277e-05
-1.73824e-05
-4.25911e-05
-8.78725e-06
-3.67552e-05
-2.45096e-06
-2.50308e-05
-8.86458e-06
-1.92713e-06
1.05651e-05
-6.39826e-06
2.58924e-05
-1.23085e-05
3.57699e-05
-1.88351e-05
4.10076e-05
-2.54209e-05
4.25032e-05
-3.17083e-05
4.10136e-05
-3.74649e-05
3.70888e-05
-4.25189e-05
3.10921e-05
-4.67088e-05
2.32581e-05
-4.98454e-05
1.37709e-05
-5.16876e-05
2.84805e-06
-5.19341e-05
-9.16698e-06
-5.02426e-05
-2.17039e-05
-4.62909e-05
-3.38594e-05
-3.99029e-05
-4.43071e-05
-3.12483e-05
-5.12823e-05
-2.10918e-05
-5.27475e-05
-1.09816e-05
-4.68655e-05
-3.16266e-06
-3.28498e-05
-1.20272e-05
-2.05917e-06
1.26243e-05
-6.76656e-06
3.05998e-05
-1.2858e-05
4.18614e-05
-1.94305e-05
4.75801e-05
-2.59263e-05
4.8999e-05
-3.20379e-05
4.71252e-05
-3.76089e-05
4.26598e-05
-4.25518e-05
3.6035e-05
-4.67863e-05
2.74926e-05
-5.0191e-05
1.71756e-05
-5.25658e-05
5.22291e-06
-5.36065e-05
-8.12636e-06
-5.28991e-05
-2.24113e-05
-4.99586e-05
-3.67999e-05
-4.43453e-05
-4.99204e-05
-3.59021e-05
-5.97255e-05
-2.5128e-05
-6.35217e-05
-1.35923e-05
-5.84011e-05
-4.08284e-06
-4.23593e-05
-1.61101e-05
-2.23016e-06
1.48544e-05
-7.17474e-06
3.55444e-05
-1.33274e-05
4.80141e-05
-1.96906e-05
5.39433e-05
-2.57329e-05
5.50414e-05
-3.12365e-05
5.26288e-05
-3.61583e-05
4.75816e-05
-4.05301e-05
4.04067e-05
-4.43875e-05
3.13501e-05
-4.77165e-05
2.05046e-05
-5.0406e-05
7.91239e-06
-5.22041e-05
-6.3282e-06
-5.26823e-05
-2.19331e-05
-5.12287e-05
-3.82535e-05
-4.71213e-05
-5.40278e-05
-3.97593e-05
-6.70874e-05
-2.91399e-05
-7.41412e-05
-1.65679e-05
-7.09731e-05
-5.26249e-06
-5.36646e-05
-2.13726e-05
-2.52235e-06
1.73768e-05
-7.77533e-06
4.07973e-05
-1.38583e-05
5.40971e-05
-1.96741e-05
5.97591e-05
-2.47752e-05
6.01424e-05
-2.90953e-05
5.69489e-05
-3.2755e-05
5.12412e-05
-3.59427e-05
4.35945e-05
-3.88426e-05
3.425e-05
-4.15831e-05
2.32451e-05
-4.41898e-05
1.05191e-05
-4.65291e-05
-3.98893e-06
-4.82412e-05
-2.0221e-05
-4.86743e-05
-3.78204e-05
-4.68721e-05
-5.58301e-05
-4.17266e-05
-7.22329e-05
-3.24796e-05
-8.33882e-05
-1.97301e-05
-8.37226e-05
-6.75801e-06
-6.66367e-05
-2.81306e-05
-3.08998e-06
2.04668e-05
-8.81539e-06
4.65227e-05
-1.46419e-05
5.99236e-05
-1.94215e-05
6.45387e-05
-2.29121e-05
6.3633e-05
-2.52994e-05
5.93362e-05
-2.69312e-05
5.28731e-05
-2.81886e-05
4.48518e-05
-2.94242e-05
3.54856e-05
-3.09282e-05
2.47491e-05
-3.28939e-05
1.24847e-05
-3.53634e-05
-1.51945e-06
-3.81416e-05
-1.74427e-05
-4.06706e-05
-3.52915e-05
-4.18996e-05
-5.4601e-05
-4.02691e-05
-7.38634e-05
-3.40811e-05
-8.95762e-05
-2.26705e-05
-9.51332e-05
-8.61368e-06
-8.06936e-05
-3.67442e-05
-4.20024e-06
2.4667e-05
-1.0621e-05
5.29435e-05
-1.57954e-05
6.50981e-05
-1.87433e-05
6.74865e-05
-1.96709e-05
6.45606e-05
-1.91646e-05
5.88299e-05
-1.78688e-05
5.15773e-05
-1.63766e-05
4.33595e-05
-1.52034e-05
3.43124e-05
-1.47874e-05
2.43331e-05
-1.54847e-05
1.31819e-05
-1.75367e-05
5.32575e-07
-2.09889e-05
-1.39905e-05
-2.55318e-05
-3.07486e-05
-3.02546e-05
-4.98782e-05
-3.33829e-05
-7.07351e-05
-3.23032e-05
-9.06559e-05
-2.45545e-05
-0.000102882
-1.07874e-05
-9.44606e-05
-4.75317e-05
-6.24654e-06
3.09136e-05
-1.34049e-05
6.01018e-05
-1.69235e-05
6.86167e-05
-1.66373e-05
6.72003e-05
-1.36272e-05
6.15506e-05
-9.05118e-06
5.42539e-05
-3.88366e-06
4.64098e-05
1.10196e-06
3.83739e-05
5.28618e-06
3.01282e-05
8.14722e-06
2.14721e-05
9.2244e-06
1.21048e-05
8.11195e-06
1.64503e-06
4.5082e-06
-1.03868e-05
-1.64585e-06
-2.45945e-05
-9.86096e-06
-4.16631e-05
-1.85926e-05
-6.20035e-05
-2.47106e-05
-8.45379e-05
-2.3749e-05
-0.000103844
-1.29138e-05
-0.000105296
-6.04455e-05
-9.56114e-06
4.04747e-05
-1.64262e-05
6.69669e-05
-1.5821e-05
6.80115e-05
-9.88905e-06
6.12683e-05
-1.12549e-06
5.2787e-05
8.70423e-06
4.44241e-05
1.84201e-05
3.6694e-05
2.7225e-05
2.9569e-05
3.45421e-05
2.2811e-05
3.98967e-05
1.61175e-05
4.28386e-05
9.16287e-06
4.28996e-05
1.58401e-06
3.95918e-05
-7.07899e-06
3.24708e-05
-1.74735e-05
2.13801e-05
-3.05723e-05
7.0536e-06
-4.7677e-05
-7.76909e-06
-6.97152e-05
-1.7213e-05
-9.43996e-05
-1.37628e-05
-0.000108746
-7.42084e-05
-1.34303e-05
5.3905e-05
-1.50804e-05
6.8617e-05
-5.09684e-06
5.80279e-05
9.81195e-06
4.63596e-05
2.5843e-05
3.67559e-05
4.12124e-05
2.90547e-05
5.50401e-05
2.28663e-05
6.6862e-05
1.77471e-05
7.63896e-05
1.32833e-05
8.33718e-05
9.13539e-06
8.7514e-05
5.02066e-06
8.84242e-05
6.73824e-07
8.55769e-05
-4.23171e-06
7.8266e-05
-1.01626e-05
6.56628e-05
-1.79691e-05
4.71874e-05
-2.92016e-05
2.37937e-05
-4.63215e-05
7.10683e-07
-7.13166e-05
-1.02174e-05
-9.78179e-05
-8.44257e-05
-9.40897e-06
6.3314e-05
8.82292e-06
5.03851e-05
3.51828e-05
3.1668e-05
6.00386e-05
2.15038e-05
8.14864e-05
1.53081e-05
9.94556e-05
1.10856e-05
0.000114205
8.11713e-06
0.000126018
5.93423e-06
0.000135099
4.20213e-06
0.000141533
2.70143e-06
0.000145269
1.28478e-06
0.0001461
-1.57203e-07
0.000143635
-1.76688e-06
0.000137173
-3.70041e-06
0.000125542
-6.33828e-06
0.000106893
-1.05524e-05
7.90756e-05
-1.85044e-05
4.2292e-05
-3.4533e-05
6.89737e-06
-6.24232e-05
-7.75284e-05
6.3314e-05
0.000113699
0.000145367
0.000166871
0.000182179
0.000193265
0.000201382
0.000207316
0.000211518
0.000214219
0.000215504
0.000215347
0.00021358
0.00020988
0.000203541
0.000192989
0.000174485
0.000139952
7.75284e-05
)
;

boundaryField
{
    movingWall
    {
        type            calculated;
        value           uniform 0;
    }
    fixedWalls
    {
        type            calculated;
        value           uniform 0;
    }
    frontAndBack
    {
        type            empty;
        value           nonuniform List<scalar> 0();
    }
}


// ************************************************************************* //
