/*--------------------------------*- C++ -*----------------------------------*\
  =========                 |
  \\      /  F ield         | OpenFOAM: The Open Source CFD Toolbox
   \\    /   O peration     | Website:  https://openfoam.org
    \\  /    A nd           | Version:  9
     \\/     M anipulation  |
\*---------------------------------------------------------------------------*/
FoamFile
{
    format      ascii;
    class       volScalarField;
    location    "0.035";
    object      p;
}
// * * * * * * * * * * * * * * * * * * * * * * * * * * * * * * * * * * * * * //

dimensions      [0 2 -2 0 0 0 0];

internalField   nonuniform List<scalar> 
40
(
-1.37143
-1.1717
-0.98734
-0.800107
-0.594456
-1.88255
-1.58343
-1.32567
-1.08157
-0.830195
-0.560133
-0.269502
-2.39395
-1.94445
-1.58232
-1.2724
-0.974987
-0.673637
-0.368204
-2.83742
-2.17975
-1.69096
-1.3059
-0.974432
-0.659846
-0.354744
-2.97789
-2.11168
-1.53117
-1.1166
-0.794936
-0.510932
-0.24623
-2.48365
-1.56069
-1.00714
-0.667256
-0.436882
-0.253298
-0.0834229
)
;

boundaryField
{
    movingWall
    {
        type            zeroGradient;
    }
    fixedWalls
    {
        type            zeroGradient;
    }
    frontAndBack
    {
        type            empty;
    }
    procBoundary4to1
    {
        type            processor;
        value           nonuniform List<scalar> 6(-1.55517 -2.1874 -2.92264 -3.72349 -4.34206 -4.24298);
    }
    procBoundary4to3
    {
        type            processor;
        value           nonuniform List<scalar> 8(-0.946058 -0.817454 -0.681978 -0.537275 -0.369232 -0.378224 -0.378224 -0.109875);
    }
    procBoundary4to6
    {
        type            processor;
        value           nonuniform List<scalar> 5(0.0317439 -0.0304886 0.00721585 0.12221 0.239578);
    }
}


// ************************************************************************* //
