/*--------------------------------*- C++ -*----------------------------------*\
| =========                 |                                                 |
| \\      /  F ield         | OpenFOAM: The Open Source CFD Toolbox           |
|  \\    /   O peration     | Version:  2212                                  |
|   \\  /    A nd           | Website:  www.openfoam.com                      |
|    \\/     M anipulation  |                                                 |
\*---------------------------------------------------------------------------*/
FoamFile
{
    version     2.0;
    format      ascii;
    arch        "LSB;label=32;scalar=64";
    class       volVectorField;
    location    "0.2";
    object      U;
}
// * * * * * * * * * * * * * * * * * * * * * * * * * * * * * * * * * * * * * //

dimensions      [0 1 -1 0 0 0 0];

internalField   nonuniform List<vector> 
44
(
(0.00561353 0 0)
(0.00480161 0 0)
(0.00386858 0 0)
(0.00283686 0 0)
(0.00173208 0 0)
(0.000582406 0 0)
(0.0170059 0 0)
(0.0145477 0 0)
(0.0117219 0 0)
(0.00859641 0 0)
(0.00524896 0 0)
(0.001765 0 0)
(0.0288984 0 0)
(0.024726 0 0)
(0.0199269 0 0)
(0.0146161 0 0)
(0.0089256 0 0)
(0.00300148 0 0)
(0.0416378 0 0)
(0.0356374 0 0)
(0.0287292 0 0)
(0.0210778 0 0)
(0.0128741 0 0)
(0.0043297 0 0)
(0.0555912 0 0)
(0.0476021 0 0)
(0.0383917 0 0)
(0.0281777 0 0)
(0.0172153 0 0)
(0.00579057 0 0)
(0.071156 0 0)
(0.06097 0 0)
(0.0492037 0 0)
(0.0361325 0 0)
(0.0220841 0 0)
(0.00742981 0 0)
(0.0991561 0 0)
(0.0887733 0 0)
(0.0761318 0 0)
(0.0614922 0 0)
(0.0451902 0 0)
(0.0276353 0 0)
(0.00930022 0 0)
(0.0114647 0 0)
)
;

boundaryField
{
    movingWall
    {
        type            fixedValue;
        value           nonuniform List<vector> 0();
    }
    fixedWalls
    {
        type            noSlip;
    }
    frontAndBack
    {
        type            empty;
    }
    procBoundary2to1
    {
        type            processor;
        value           nonuniform List<vector> 8((0.00628566 0 0) (0.0190405 0 0) (0.0323499 0 0) (0.046597 0 0) (0.0621848 0 0) (0.0795451 0 0) (0.0795451 0 0) (0.1071 0 0));
    }
    procBoundary2to5
    {
        type            processor;
        value           nonuniform List<vector> 8((0.121543 0 0) (0.108936 0 0) (0.0935359 0 0) (0.0756386 0 0) (0.0556437 0 0) (0.034054 0 0) (0.034054 0 0) (0.0140024 0 0));
    }
}


// ************************************************************************* //
