/*--------------------------------*- C++ -*----------------------------------*\
| =========                 |                                                 |
| \\      /  F ield         | OpenFOAM: The Open Source CFD Toolbox           |
|  \\    /   O peration     | Version:  2212                                  |
|   \\  /    A nd           | Website:  www.openfoam.com                      |
|    \\/     M anipulation  |                                                 |
\*---------------------------------------------------------------------------*/
FoamFile
{
    version     2.0;
    format      ascii;
    arch        "LSB;label=32;scalar=64";
    class       volVectorField;
    location    "0.3";
    object      U;
}
// * * * * * * * * * * * * * * * * * * * * * * * * * * * * * * * * * * * * * //

dimensions      [0 1 -1 0 0 0 0];

internalField   nonuniform List<vector> 
44
(
(0.00979599 0 0)
(0.0291105 0 0)
(0.0476082 0 0)
(0.0647937 0 0)
(0.0802351 0 0)
(0.0120033 0 0)
(0.0356556 0 0)
(0.0582689 0 0)
(0.079223 0 0)
(0.0979917 0 0)
(0.114154 0 0)
(0.127396 0 0)
(0.0145699 0 0)
(0.0432553 0 0)
(0.0706139 0 0)
(0.0958726 0 0)
(0.118397 0 0)
(0.137703 0 0)
(0.153449 0 0)
(0.0175962 0 0)
(0.0521977 0 0)
(0.0850852 0 0)
(0.115293 0 0)
(0.142065 0 0)
(0.164866 0 0)
(0.18335 0 0)
(0.0212189 0 0)
(0.0628705 0 0)
(0.102263 0 0)
(0.138185 0 0)
(0.169752 0 0)
(0.196402 0 0)
(0.21783 0 0)
(0.0256334 0 0)
(0.0758185 0 0)
(0.122941 0 0)
(0.165469 0 0)
(0.202401 0 0)
(0.233214 0 0)
(0.257723 0 0)
(0.198383 0 0)
(0.241217 0 0)
(0.276383 0 0)
(0.30396 0 0)
)
;

boundaryField
{
    movingWall
    {
        type            fixedValue;
        value           nonuniform List<vector> 0();
    }
    fixedWalls
    {
        type            noSlip;
    }
    frontAndBack
    {
        type            empty;
    }
    procBoundary3to0
    {
        type            processor;
        value           nonuniform List<vector> 8((0.00787103 0 0) (0.0233968 0 0) (0.0382844 0 0) (0.0521422 0 0) (0.0646236 0 0) (0.0935803 0 0) (0.0935803 0 0) (0.104551 0 0));
    }
    procBoundary3to4
    {
        type            processor;
        value           nonuniform List<vector> 6((0.137499 0 0) (0.165413 0 0) (0.19732 0 0) (0.233915 0 0) (0.275954 0 0) (0.324235 0 0));
    }
    procBoundary3to6
    {
        type            processor;
        value           nonuniform List<vector> 7((0.0311356 0 0) (0.0918474 0 0) (0.148242 0 0) (0.148242 0 0) (0.238646 0 0) (0.287749 0 0) (0.3272 0 0));
    }
    procBoundary3to7
    {
        type            processor;
        value           uniform (0.35757 0 0);
    }
}


// ************************************************************************* //
