/*--------------------------------*- C++ -*----------------------------------*\
  =========                 |
  \\      /  F ield         | OpenFOAM: The Open Source CFD Toolbox
   \\    /   O peration     | Website:  https://openfoam.org
    \\  /    A nd           | Version:  9
     \\/     M anipulation  |
\*---------------------------------------------------------------------------*/
FoamFile
{
    format      ascii;
    class       volScalarField;
    location    "0.08";
    object      p;
}
// * * * * * * * * * * * * * * * * * * * * * * * * * * * * * * * * * * * * * //

dimensions      [0 2 -2 0 0 0 0];

internalField   nonuniform List<scalar> 
40
(
-0.0326126
-0.0241854
-0.0181218
-0.0146841
-0.0136828
-0.0141228
-0.0378851
-0.0287054
-0.0222227
-0.0188729
-0.0181678
-0.0197455
-0.0527393
-0.042278
-0.0349158
-0.0309801
-0.0298633
-0.0312836
-0.0757926
-0.0633887
-0.0545659
-0.0495967
-0.0477299
-0.048807
-0.107001
-0.0921006
-0.0811818
-0.074709
-0.0718085
-0.0725266
-0.146474
-0.127568
-0.115346
-0.106961
-0.102682
-0.103496
-0.156972
-0.14667
-0.141547
-0.142873
)
;

boundaryField
{
    movingWall
    {
        type            zeroGradient;
    }
    fixedWalls
    {
        type            zeroGradient;
    }
    frontAndBack
    {
        type            empty;
    }
    procBoundary7to5
    {
        type            processor;
        value           nonuniform List<scalar> 6(-0.0541888 -0.0609779 -0.0758133 -0.0979584 -0.127347 -0.164393);
    }
    procBoundary7to8
    {
        type            processor;
        value           nonuniform List<scalar> 7(-0.186484 -0.167125 -0.167125 -0.212188 -0.203999 -0.200928 -0.202014);
    }
}


// ************************************************************************* //
