/*--------------------------------*- C++ -*----------------------------------*\
  =========                 |
  \\      /  F ield         | OpenFOAM: The Open Source CFD Toolbox
   \\    /   O peration     | Website:  https://openfoam.org
    \\  /    A nd           | Version:  8
     \\/     M anipulation  |
\*---------------------------------------------------------------------------*/
FoamFile
{
    version     2.0;
    format      ascii;
    class       volScalarField;
    location    "84";
    object      epsilon_0;
}
// * * * * * * * * * * * * * * * * * * * * * * * * * * * * * * * * * * * * * //

dimensions      [0 2 -3 0 0 0 0];

internalField   nonuniform List<scalar> 
20
(
0.21616
0.117702
0.0291538
0.0152806
0.00922926
0.00569283
0.00413491
0.00391597
0.00446462
0.00414832
0.00414692
0.00446309
0.00391473
0.00413378
0.00569156
0.00922759
0.015279
0.029149
0.117684
0.216183
)
;

boundaryField
{
    bottomWall
    {
        type            epsilonWallFunction;
        value           uniform 0.21616;
    }
    topWall
    {
        type            epsilonWallFunction;
        value           uniform 0.216183;
    }
    sides1_half0
    {
        type            empty;
    }
    sides1_half1
    {
        type            empty;
    }
    sides2_half0
    {
        type            empty;
    }
    sides2_half1
    {
        type            empty;
    }
    inout1_half0
    {
        type            empty;
    }
    inout1_half1
    {
        type            empty;
    }
    inout2_half0
    {
        type            empty;
    }
    inout2_half1
    {
        type            empty;
    }
}


// ************************************************************************* //
