/*--------------------------------*- C++ -*----------------------------------*\
  =========                 |
  \\      /  F ield         | OpenFOAM: The Open Source CFD Toolbox
   \\    /   O peration     | Website:  https://openfoam.org
    \\  /    A nd           | Version:  8
     \\/     M anipulation  |
\*---------------------------------------------------------------------------*/
FoamFile
{
    version     2.0;
    format      ascii;
    class       volScalarField;
    location    "84";
    object      epsilon;
}
// * * * * * * * * * * * * * * * * * * * * * * * * * * * * * * * * * * * * * //

dimensions      [0 2 -3 0 0 0 0];

internalField   nonuniform List<scalar> 
20
(
0.216085
0.117624
0.0291336
0.0152714
0.0092229
0.00568862
0.00413169
0.00391297
0.0044616
0.0041455
0.0041441
0.00446009
0.00391174
0.00413057
0.00568737
0.00922124
0.0152697
0.0291288
0.117606
0.216108
)
;

boundaryField
{
    bottomWall
    {
        type            epsilonWallFunction;
        value           uniform 0.216085;
    }
    topWall
    {
        type            epsilonWallFunction;
        value           uniform 0.216108;
    }
    sides1_half0
    {
        type            empty;
    }
    sides1_half1
    {
        type            empty;
    }
    sides2_half0
    {
        type            empty;
    }
    sides2_half1
    {
        type            empty;
    }
    inout1_half0
    {
        type            empty;
    }
    inout1_half1
    {
        type            empty;
    }
    inout2_half0
    {
        type            empty;
    }
    inout2_half1
    {
        type            empty;
    }
}


// ************************************************************************* //
