/*--------------------------------*- C++ -*----------------------------------*\
  =========                 |
  \\      /  F ield         | OpenFOAM: The Open Source CFD Toolbox
   \\    /   O peration     | Website:  https://openfoam.org
    \\  /    A nd           | Version:  8
     \\/     M anipulation  |
\*---------------------------------------------------------------------------*/
FoamFile
{
    version     2.0;
    format      ascii;
    class       volScalarField;
    location    "84";
    object      k;
}
// * * * * * * * * * * * * * * * * * * * * * * * * * * * * * * * * * * * * * //

dimensions      [0 2 -2 0 0 0 0];

internalField   nonuniform List<scalar> 
20
(
0.058596
0.0624032
0.0316379
0.0301087
0.0282199
0.026208
0.0263759
0.0292967
0.0340512
0.0338945
0.033888
0.0340441
0.0292905
0.0263705
0.026203
0.0282149
0.0301049
0.0316325
0.06239
0.0585975
)
;

boundaryField
{
    bottomWall
    {
        type            kqRWallFunction;
        value           uniform 0.058596;
    }
    topWall
    {
        type            kqRWallFunction;
        value           uniform 0.0585975;
    }
    sides1_half0
    {
        type            empty;
    }
    sides1_half1
    {
        type            empty;
    }
    sides2_half0
    {
        type            empty;
    }
    sides2_half1
    {
        type            empty;
    }
    inout1_half0
    {
        type            empty;
    }
    inout1_half1
    {
        type            empty;
    }
    inout2_half0
    {
        type            empty;
    }
    inout2_half1
    {
        type            empty;
    }
}


// ************************************************************************* //
