/*--------------------------------*- C++ -*----------------------------------*\
  =========                 |
  \\      /  F ield         | OpenFOAM: The Open Source CFD Toolbox
   \\    /   O peration     | Website:  https://openfoam.org
    \\  /    A nd           | Version:  8
     \\/     M anipulation  |
\*---------------------------------------------------------------------------*/
FoamFile
{
    version     2.0;
    format      ascii;
    class       volVectorField;
    location    "84";
    object      UMean;
}
// * * * * * * * * * * * * * * * * * * * * * * * * * * * * * * * * * * * * * //

dimensions      [0 1 -1 0 0 0 0];

internalField   nonuniform List<vector> 
20
(
(2.31687 0 0)
(1.17966 0 0)
(0.998938 0 0)
(0.86508 0 0)
(0.750269 0 0)
(0.69496 0 0)
(0.678086 0 0)
(0.705464 0 0)
(0.791008 0 0)
(0.923929 0 0)
(0.924109 0 0)
(0.791352 0 0)
(0.705916 0 0)
(0.678669 0 0)
(0.695697 0 0)
(0.751154 0 0)
(0.866088 0 0)
(1.00004 0 0)
(1.18095 0 0)
(2.31906 0 0)
)
;

boundaryField
{
    bottomWall
    {
        type            calculated;
        value           uniform (0 0 0);
    }
    topWall
    {
        type            calculated;
        value           uniform (0 0 0);
    }
    sides1_half0
    {
        type            empty;
    }
    sides1_half1
    {
        type            empty;
    }
    sides2_half0
    {
        type            empty;
    }
    sides2_half1
    {
        type            empty;
    }
    inout1_half0
    {
        type            empty;
    }
    inout1_half1
    {
        type            empty;
    }
    inout2_half0
    {
        type            empty;
    }
    inout2_half1
    {
        type            empty;
    }
}


// ************************************************************************* //
