/*--------------------------------*- C++ -*----------------------------------*\
  =========                 |
  \\      /  F ield         | OpenFOAM: The Open Source CFD Toolbox
   \\    /   O peration     | Website:  https://openfoam.org
    \\  /    A nd           | Version:  8
     \\/     M anipulation  |
\*---------------------------------------------------------------------------*/
FoamFile
{
    version     2.0;
    format      ascii;
    class       volSymmTensorField;
    location    "84";
    object      UPrime2Mean;
}
// * * * * * * * * * * * * * * * * * * * * * * * * * * * * * * * * * * * * * //

dimensions      [0 2 -2 0 0 0 0];

internalField   nonuniform List<symmTensor> 
20
(
(0.412814 0 0 0 0 0)
(0.00803996 0 0 0 0 0)
(0.0213957 0 0 0 0 0)
(0.0188076 0 0 0 0 0)
(0.00948654 0 0 0 0 0)
(0.00429615 0 0 0 0 0)
(0.00142726 0 0 0 0 0)
(0.00113394 0 0 0 0 0)
(0.00274278 0 0 0 0 0)
(0.00513561 0 0 0 0 0)
(0.00517391 0 0 0 0 0)
(0.00282218 0 0 0 0 0)
(0.00121079 0 0 0 0 0)
(0.00145413 0 0 0 0 0)
(0.00421821 0 0 0 0 0)
(0.00924598 0 0 0 0 0)
(0.0183356 0 0 0 0 0)
(0.020736 0 0 0 0 0)
(0.00770717 0 0 0 0 0)
(0.416643 0 0 0 0 0)
)
;

boundaryField
{
    bottomWall
    {
        type            calculated;
        value           uniform (0 0 0 0 0 0);
    }
    topWall
    {
        type            calculated;
        value           uniform (0 0 0 0 0 0);
    }
    sides1_half0
    {
        type            empty;
    }
    sides1_half1
    {
        type            empty;
    }
    sides2_half0
    {
        type            empty;
    }
    sides2_half1
    {
        type            empty;
    }
    inout1_half0
    {
        type            empty;
    }
    inout1_half1
    {
        type            empty;
    }
    inout2_half0
    {
        type            empty;
    }
    inout2_half1
    {
        type            empty;
    }
}


// ************************************************************************* //
