/*--------------------------------*- C++ -*----------------------------------*\
| =========                 |                                                 |
| \\      /  F ield         | OpenFOAM: The Open Source CFD Toolbox           |
|  \\    /   O peration     | Version:  2212                                  |
|   \\  /    A nd           | Website:  www.openfoam.com                      |
|    \\/     M anipulation  |                                                 |
\*---------------------------------------------------------------------------*/
FoamFile
{
    version     2.0;
    format      ascii;
    arch        "LSB;label=32;scalar=64";
    class       volVectorField;
    location    "0.1";
    object      U;
}
// * * * * * * * * * * * * * * * * * * * * * * * * * * * * * * * * * * * * * //

dimensions      [0 1 -1 0 0 0 0];

internalField   nonuniform List<vector> 
44
(
(0.000326448 0 0)
(0.000970508 0 0)
(0.00158847 0 0)
(0.00216419 0 0)
(0.00268328 0 0)
(0.00313345 0 0)
(0.0035047 0 0)
(0.00100033 0 0)
(0.00297379 0 0)
(0.00486693 0 0)
(0.00663018 0 0)
(0.00821939 0 0)
(0.00959702 0 0)
(0.0107327 0 0)
(0.00173794 0 0)
(0.00516611 0 0)
(0.00845348 0 0)
(0.0115135 0 0)
(0.0142694 0 0)
(0.0166565 0 0)
(0.0186228 0 0)
(0.0025843 0 0)
(0.00768087 0 0)
(0.0125652 0 0)
(0.0171074 0 0)
(0.0211936 0 0)
(0.0247284 0 0)
(0.0276362 0 0)
(0.00358832 0 0)
(0.0106629 0 0)
(0.0174369 0 0)
(0.0237281 0 0)
(0.0293782 0 0)
(0.0342573 0 0)
(0.0382637 0 0)
(0.00480472 0 0)
(0.0142736 0 0)
(0.0233295 0 0)
(0.0317245 0 0)
(0.0392468 0 0)
(0.045728 0 0)
(0.0510361 0 0)
(0.0596749 0 0)
(0.0665353 0 0)
)
;

boundaryField
{
    movingWall
    {
        type            fixedValue;
        value           nonuniform List<vector> 0();
    }
    fixedWalls
    {
        type            noSlip;
    }
    frontAndBack
    {
        type            empty;
    }
    procBoundary0to1
    {
        type            processor;
        value           nonuniform List<vector> 6((0.00378973 0 0) (0.0116043 0 0) (0.0201307 0 0) (0.0298636 0 0) (0.0413274 0 0) (0.0550855 0 0));
    }
    procBoundary0to3
    {
        type            processor;
        value           nonuniform List<vector> 8((0.00629662 0 0) (0.0186988 0 0) (0.0305413 0 0) (0.0414926 0 0) (0.0512749 0 0) (0.0512749 0 0) (0.0767012 0 0) (0.0854035 0 0));
    }
    procBoundary0to4
    {
        type            processor;
        value           uniform (0.0717555 0 0);
    }
}


// ************************************************************************* //
